VARIABLES="Period (s)" "|Fx| (N/m)" "|Fy| (N/m)" "|Fz| (N/m)" "|Cx| (N)" "|Cy| (N)" "|Cz| (N)" "ang(Fx) (°)" "ang(Fy) (°)" "ang(Fz) (°)" "ang(Cx) (°)" "ang(Cy) (°)" "ang(Cz) (°)"
Zone t="Corps  1"
 0.6283185E+03  0.981000E+04  0.000000E+00  0.249597E+06  0.000000E+00  0.820458E+04  0.000000E+00  179.15    0.00  360.00    0.00    5.00    0.00
 0.3141593E+03  0.982282E+04  0.000000E+00  0.249224E+06  0.000000E+00  0.865730E+04  0.000000E+00  176.62    0.00  360.00    0.00   19.29    0.00
 0.2094395E+03  0.988600E+04  0.000000E+00  0.248609E+06  0.000000E+00  0.103780E+05  0.000000E+00  172.45    0.00    0.00    0.00   38.09    0.00
 0.1570796E+03  0.100621E+05  0.000000E+00  0.247733E+06  0.000000E+00  0.140351E+05  0.000000E+00  166.72    0.00    0.00    0.00   54.45    0.00
 0.1256637E+03  0.104297E+05  0.000000E+00  0.246616E+06  0.000000E+00  0.196159E+05  0.000000E+00  159.72    0.00    0.00    0.00   65.44    0.00
 0.1047198E+03  0.110628E+05  0.000000E+00  0.245273E+06  0.000000E+00  0.268013E+05  0.000000E+00  152.04    0.00    0.00    0.00   72.32    0.00
 0.8975979E+02  0.120296E+05  0.000000E+00  0.243629E+06  0.000000E+00  0.355748E+05  0.000000E+00  144.21    0.00    0.00    0.00   76.79    0.00
 0.7853982E+02  0.134128E+05  0.000000E+00  0.241779E+06  0.000000E+00  0.460926E+05  0.000000E+00  136.58    0.00    0.00    0.00   79.86    0.00
 0.6981317E+02  0.151530E+05  0.000000E+00  0.239687E+06  0.000000E+00  0.575556E+05  0.000000E+00  129.92    0.00    0.00    0.00   81.91    0.00
 0.6283186E+02  0.173719E+05  0.000000E+00  0.237375E+06  0.000000E+00  0.710918E+05  0.000000E+00  123.96    0.00    0.00    0.00   83.47    0.00
 0.5711987E+02  0.198509E+05  0.000000E+00  0.234762E+06  0.000000E+00  0.851306E+05  0.000000E+00  119.19    0.00    0.00    0.00   84.57    0.00
 0.5235988E+02  0.228211E+05  0.000000E+00  0.231942E+06  0.000000E+00  0.101337E+06  0.000000E+00  115.03    0.00    0.01    0.00   85.45    0.00
 0.4833220E+02  0.260482E+05  0.000000E+00  0.228927E+06  0.000000E+00  0.118305E+06  0.000000E+00  111.70    0.00    0.01    0.00   86.11    0.00
 0.4487989E+02  0.295990E+05  0.000000E+00  0.225588E+06  0.000000E+00  0.136426E+06  0.000000E+00  108.93    0.00    0.01    0.00   86.64    0.00
 0.4188790E+02  0.335566E+05  0.000000E+00  0.222122E+06  0.000000E+00  0.156433E+06  0.000000E+00  106.57    0.00    0.02    0.00   87.08    0.00
 0.3926991E+02  0.378213E+05  0.000000E+00  0.218310E+06  0.000000E+00  0.177712E+06  0.000000E+00  104.60    0.00    0.02    0.00   87.44    0.00
 0.3695992E+02  0.421654E+05  0.000000E+00  0.214337E+06  0.000000E+00  0.198864E+06  0.000000E+00  103.02    0.00    0.02    0.00   87.72    0.00
 0.3490659E+02  0.469984E+05  0.000000E+00  0.210189E+06  0.000000E+00  0.222128E+06  0.000000E+00  101.62    0.00    0.03    0.00   87.96    0.00
 0.3306940E+02  0.521044E+05  0.000000E+00  0.205679E+06  0.000000E+00  0.246861E+06  0.000000E+00  100.42    0.00    0.04    0.00   88.18    0.00
 0.3141593E+02  0.575447E+05  0.000000E+00  0.201154E+06  0.000000E+00  0.272815E+06  0.000000E+00   99.38    0.00    0.05    0.00   88.35    0.00
 0.2991993E+02  0.628716E+05  0.000000E+00  0.196242E+06  0.000000E+00  0.297798E+06  0.000000E+00   98.54    0.00    0.06    0.00   88.50    0.00
 0.2855993E+02  0.687168E+05  0.000000E+00  0.191103E+06  0.000000E+00  0.325094E+06  0.000000E+00   97.77    0.00    0.07    0.00   88.63    0.00
 0.2731820E+02  0.748804E+05  0.000000E+00  0.185970E+06  0.000000E+00  0.353662E+06  0.000000E+00   97.08    0.00    0.08    0.00   88.74    0.00
 0.2617994E+02  0.813267E+05  0.000000E+00  0.180498E+06  0.000000E+00  0.383476E+06  0.000000E+00   96.48    0.00    0.09    0.00   88.84    0.00
 0.2513274E+02  0.880391E+05  0.000000E+00  0.174688E+06  0.000000E+00  0.414348E+06  0.000000E+00   95.95    0.00    0.11    0.00   88.93    0.00
 0.2416610E+02  0.944139E+05  0.000000E+00  0.168816E+06  0.000000E+00  0.443000E+06  0.000000E+00   95.51    0.00    0.13    0.00   89.00    0.00
 0.2327106E+02  0.101404E+06  0.000000E+00  0.163050E+06  0.000000E+00  0.474203E+06  0.000000E+00   95.09    0.00    0.15    0.00   89.06    0.00
 0.2243995E+02  0.108700E+06  0.000000E+00  0.156629E+06  0.000000E+00  0.506550E+06  0.000000E+00   94.71    0.00    0.17    0.00   89.12    0.00
 0.2166616E+02  0.116161E+06  0.000000E+00  0.150096E+06  0.000000E+00  0.539622E+06  0.000000E+00   94.36    0.00    0.19    0.00   89.17    0.00
 0.2094395E+02  0.123900E+06  0.000000E+00  0.143494E+06  0.000000E+00  0.573837E+06  0.000000E+00   94.05    0.00    0.22    0.00   89.21    0.00
 0.2026834E+02  0.132313E+06  0.000000E+00  0.137070E+06  0.000000E+00  0.610736E+06  0.000000E+00   93.75    0.00    0.24    0.00   89.25    0.00
 0.1963495E+02  0.139896E+06  0.000000E+00  0.130022E+06  0.000000E+00  0.642887E+06  0.000000E+00   93.51    0.00    0.27    0.00   89.27    0.00
 0.1903996E+02  0.147726E+06  0.000000E+00  0.122701E+06  0.000000E+00  0.675970E+06  0.000000E+00   93.28    0.00    0.30    0.00   89.29    0.00
 0.1847996E+02  0.156093E+06  0.000000E+00  0.115383E+06  0.000000E+00  0.711246E+06  0.000000E+00   93.05    0.00    0.34    0.00   89.31    0.00
 0.1795196E+02  0.164793E+06  0.000000E+00  0.108139E+06  0.000000E+00  0.747313E+06  0.000000E+00   92.84    0.00    0.37    0.00   89.32    0.00
 0.1745329E+02  0.173631E+06  0.000000E+00  0.101005E+06  0.000000E+00  0.783486E+06  0.000000E+00   92.65    0.00    0.41    0.00   89.33    0.00
 0.1698158E+02  0.182357E+06  0.000000E+00  0.930866E+05  0.000000E+00  0.819020E+06  0.000000E+00   92.46    0.00    0.45    0.00   89.33    0.00
 0.1653470E+02  0.191654E+06  0.000000E+00  0.849590E+05  0.000000E+00  0.857153E+06  0.000000E+00   92.28    0.00    0.50    0.00   89.32    0.00
 0.1611073E+02  0.201438E+06  0.000000E+00  0.768915E+05  0.000000E+00  0.897121E+06  0.000000E+00   92.11    0.00    0.54    0.00   89.31    0.00
 0.1570796E+02  0.210301E+06  0.000000E+00  0.688040E+05  0.000000E+00  0.931417E+06  0.000000E+00   91.95    0.00    0.59    0.00   89.30    0.00
 0.1532484E+02  0.219067E+06  0.000000E+00  0.610723E+05  0.000000E+00  0.964419E+06  0.000000E+00   91.80    0.00    0.64    0.00   89.27    0.00
 0.1495997E+02  0.228387E+06  0.000000E+00  0.529232E+05  0.000000E+00  0.999797E+06  0.000000E+00   91.65    0.00    0.69    0.00   89.24    0.00
 0.1461206E+02  0.237918E+06  0.000000E+00  0.440652E+05  0.000000E+00  0.103549E+07  0.000000E+00   91.50    0.00    0.77    0.00   89.21    0.00
 0.1427997E+02  0.247632E+06  0.000000E+00  0.352060E+05  0.000000E+00  0.107135E+07  0.000000E+00   91.36    0.00    0.85    0.00   89.17    0.00
 0.1396264E+02  0.257420E+06  0.000000E+00  0.264194E+05  0.000000E+00  0.110708E+07  0.000000E+00   91.21    0.00    0.96    0.00   89.13    0.00
 0.1365910E+02  0.267130E+06  0.000000E+00  0.175905E+05  0.000000E+00  0.114197E+07  0.000000E+00   91.06    0.00    1.13    0.00   89.07    0.00
 0.1336848E+02  0.276789E+06  0.000000E+00  0.916553E+04  0.000000E+00  0.117646E+07  0.000000E+00   90.91    0.00    1.40    0.00   89.01    0.00
 0.1308997E+02  0.287230E+06  0.000000E+00  0.710012E+03  0.000000E+00  0.121426E+07  0.000000E+00   90.77    0.00    6.78    0.00   88.95    0.00
 0.1282283E+02  0.297774E+06  0.000000E+00  0.872953E+04  0.000000E+00  0.125159E+07  0.000000E+00   90.61    0.00  180.33    0.00   88.88    0.00
 0.1256637E+02  0.307222E+06  0.000000E+00  0.185182E+05  0.000000E+00  0.128217E+07  0.000000E+00   90.46    0.00  180.58    0.00   88.79    0.00
 0.1231997E+02  0.316047E+06  0.000000E+00  0.281487E+05  0.000000E+00  0.130882E+07  0.000000E+00   90.31    0.00  180.70    0.00   88.70    0.00
 0.1208305E+02  0.325185E+06  0.000000E+00  0.377093E+05  0.000000E+00  0.133696E+07  0.000000E+00   90.15    0.00  180.79    0.00   88.60    0.00
 0.1185507E+02  0.334657E+06  0.000000E+00  0.473117E+05  0.000000E+00  0.136618E+07  0.000000E+00   89.98    0.00  180.84    0.00   88.50    0.00
 0.1163553E+02  0.344199E+06  0.000000E+00  0.564093E+05  0.000000E+00  0.139515E+07  0.000000E+00   89.81    0.00  180.93    0.00   88.38    0.00
 0.1142397E+02  0.353725E+06  0.000000E+00  0.653092E+05  0.000000E+00  0.142315E+07  0.000000E+00   89.64    0.00  181.03    0.00   88.26    0.00
 0.1121997E+02  0.363071E+06  0.000000E+00  0.750039E+05  0.000000E+00  0.144940E+07  0.000000E+00   89.47    0.00  181.05    0.00   88.14    0.00
 0.1102313E+02  0.372138E+06  0.000000E+00  0.855716E+05  0.000000E+00  0.147378E+07  0.000000E+00   89.29    0.00  181.01    0.00   88.00    0.00
 0.1083308E+02  0.380777E+06  0.000000E+00  0.963364E+05  0.000000E+00  0.149611E+07  0.000000E+00   89.10    0.00  180.95    0.00   87.86    0.00
 0.1064947E+02  0.389065E+06  0.000000E+00  0.106872E+06  0.000000E+00  0.151705E+07  0.000000E+00   88.91    0.00  180.91    0.00   87.70    0.00
 0.1047198E+02  0.397707E+06  0.000000E+00  0.117428E+06  0.000000E+00  0.154010E+07  0.000000E+00   88.73    0.00  180.87    0.00   87.55    0.00
 0.1030030E+02  0.406652E+06  0.000000E+00  0.128134E+06  0.000000E+00  0.156377E+07  0.000000E+00   88.55    0.00  180.80    0.00   87.40    0.00
 0.1013417E+02  0.415065E+06  0.000000E+00  0.138365E+06  0.000000E+00  0.158392E+07  0.000000E+00   88.36    0.00  180.76    0.00   87.24    0.00
 0.9973310E+01  0.422337E+06  0.000000E+00  0.148072E+06  0.000000E+00  0.159678E+07  0.000000E+00   88.15    0.00  180.74    0.00   87.07    0.00
 0.9817477E+01  0.428963E+06  0.000000E+00  0.158086E+06  0.000000E+00  0.160583E+07  0.000000E+00   87.93    0.00  180.70    0.00   86.89    0.00
 0.9666440E+01  0.435214E+06  0.000000E+00  0.169477E+06  0.000000E+00  0.161261E+07  0.000000E+00   87.71    0.00  180.53    0.00   86.70    0.00
 0.9519978E+01  0.441261E+06  0.000000E+00  0.181620E+06  0.000000E+00  0.161868E+07  0.000000E+00   87.49    0.00  180.29    0.00   86.52    0.00
 0.9377889E+01  0.446949E+06  0.000000E+00  0.193902E+06  0.000000E+00  0.162305E+07  0.000000E+00   87.28    0.00  180.01    0.00   86.33    0.00
 0.9239979E+01  0.452284E+06  0.000000E+00  0.205926E+06  0.000000E+00  0.162553E+07  0.000000E+00   87.07    0.00  179.74    0.00   86.14    0.00
 0.9106066E+01  0.457392E+06  0.000000E+00  0.217963E+06  0.000000E+00  0.162691E+07  0.000000E+00   86.88    0.00  179.45    0.00   85.96    0.00
 0.8975980E+01  0.462344E+06  0.000000E+00  0.230270E+06  0.000000E+00  0.162741E+07  0.000000E+00   86.71    0.00  179.09    0.00   85.80    0.00
 0.8849557E+01  0.466821E+06  0.000000E+00  0.242449E+06  0.000000E+00  0.162574E+07  0.000000E+00   86.55    0.00  178.72    0.00   85.66    0.00
 0.8726646E+01  0.470376E+06  0.000000E+00  0.254069E+06  0.000000E+00  0.161999E+07  0.000000E+00   86.37    0.00  178.36    0.00   85.50    0.00
 0.8607103E+01  0.472986E+06  0.000000E+00  0.265415E+06  0.000000E+00  0.161048E+07  0.000000E+00   86.19    0.00  177.98    0.00   85.33    0.00
 0.8490791E+01  0.474755E+06  0.000000E+00  0.277450E+06  0.000000E+00  0.159772E+07  0.000000E+00   86.01    0.00  177.51    0.00   85.16    0.00
 0.8377581E+01  0.475746E+06  0.000000E+00  0.291207E+06  0.000000E+00  0.158100E+07  0.000000E+00   85.84    0.00  176.84    0.00   84.99    0.00
 0.8267349E+01  0.476297E+06  0.000000E+00  0.305934E+06  0.000000E+00  0.156194E+07  0.000000E+00   85.70    0.00  176.01    0.00   84.84    0.00
 0.8159982E+01  0.476477E+06  0.000000E+00  0.320938E+06  0.000000E+00  0.154103E+07  0.000000E+00   85.58    0.00  175.10    0.00   84.72    0.00
 0.8055367E+01  0.476388E+06  0.000000E+00  0.335759E+06  0.000000E+00  0.151882E+07  0.000000E+00   85.51    0.00  174.11    0.00   84.65    0.00
 0.7953399E+01  0.475823E+06  0.000000E+00  0.350110E+06  0.000000E+00  0.149454E+07  0.000000E+00   85.46    0.00  173.05    0.00   84.61    0.00
 0.7853982E+01  0.474590E+06  0.000000E+00  0.364534E+06  0.000000E+00  0.146769E+07  0.000000E+00   85.41    0.00  171.88    0.00   84.58    0.00
 0.7757019E+01  0.472554E+06  0.000000E+00  0.378897E+06  0.000000E+00  0.143730E+07  0.000000E+00   85.36    0.00  170.59    0.00   84.55    0.00
 0.7662421E+01  0.469681E+06  0.000000E+00  0.392600E+06  0.000000E+00  0.140463E+07  0.000000E+00   85.30    0.00  169.24    0.00   84.49    0.00
 0.7570103E+01  0.466131E+06  0.000000E+00  0.405331E+06  0.000000E+00  0.137005E+07  0.000000E+00   85.28    0.00  167.85    0.00   84.45    0.00
 0.7479983E+01  0.462066E+06  0.000000E+00  0.417122E+06  0.000000E+00  0.133379E+07  0.000000E+00   85.31    0.00  166.37    0.00   84.45    0.00
 0.7391983E+01  0.457669E+06  0.000000E+00  0.428846E+06  0.000000E+00  0.129605E+07  0.000000E+00   85.41    0.00  164.70    0.00   84.52    0.00
 0.7306029E+01  0.452756E+06  0.000000E+00  0.441196E+06  0.000000E+00  0.125465E+07  0.000000E+00   85.57    0.00  162.68    0.00   84.66    0.00
 0.7222052E+01  0.447246E+06  0.000000E+00  0.453557E+06  0.000000E+00  0.120960E+07  0.000000E+00   85.75    0.00  160.38    0.00   84.84    0.00
 0.7139984E+01  0.441131E+06  0.000000E+00  0.465051E+06  0.000000E+00  0.116127E+07  0.000000E+00   85.91    0.00  157.87    0.00   85.01    0.00
 0.7059759E+01  0.434419E+06  0.000000E+00  0.474893E+06  0.000000E+00  0.111044E+07  0.000000E+00   86.08    0.00  155.26    0.00   85.19    0.00
 0.6981318E+01  0.427296E+06  0.000000E+00  0.482570E+06  0.000000E+00  0.105821E+07  0.000000E+00   86.25    0.00  152.57    0.00   85.37    0.00
 0.6904599E+01  0.419796E+06  0.000000E+00  0.487487E+06  0.000000E+00  0.100511E+07  0.000000E+00   86.48    0.00  149.84    0.00   85.59    0.00
 0.6829549E+01  0.411986E+06  0.000000E+00  0.489929E+06  0.000000E+00  0.951139E+06  0.000000E+00   86.78    0.00  147.00    0.00   85.91    0.00
 0.6756114E+01  0.403719E+06  0.000000E+00  0.489650E+06  0.000000E+00  0.895142E+06  0.000000E+00   87.14    0.00  144.05    0.00   86.31    0.00
 0.6684240E+01  0.394844E+06  0.000000E+00  0.486439E+06  0.000000E+00  0.836541E+06  0.000000E+00   87.54    0.00  141.04    0.00   86.76    0.00
 0.6613880E+01  0.385277E+06  0.000000E+00  0.480218E+06  0.000000E+00  0.777064E+06  0.000000E+00   87.97    0.00  138.12    0.00   87.19    0.00
 0.6544985E+01  0.375073E+06  0.000000E+00  0.471276E+06  0.000000E+00  0.715860E+06  0.000000E+00   88.42    0.00  135.34    0.00   87.58    0.00
 0.6477510E+01  0.364375E+06  0.000000E+00  0.459990E+06  0.000000E+00  0.653116E+06  0.000000E+00   88.92    0.00  132.70    0.00   87.96    0.00
 0.6411414E+01  0.353464E+06  0.000000E+00  0.446908E+06  0.000000E+00  0.588995E+06  0.000000E+00   89.48    0.00  130.12    0.00   88.42    0.00
 0.6346652E+01  0.342220E+06  0.000000E+00  0.432415E+06  0.000000E+00  0.521112E+06  0.000000E+00   90.09    0.00  127.53    0.00   89.05    0.00
 0.6283185E+01  0.330526E+06  0.000000E+00  0.416721E+06  0.000000E+00  0.448404E+06  0.000000E+00   90.74    0.00  124.93    0.00   89.94    0.00
 0.6220976E+01  0.318319E+06  0.000000E+00  0.399925E+06  0.000000E+00  0.371435E+06  0.000000E+00   91.44    0.00  122.39    0.00   91.12    0.00
 0.6159986E+01  0.305601E+06  0.000000E+00  0.382481E+06  0.000000E+00  0.290669E+06  0.000000E+00   92.18    0.00  119.99    0.00   92.75    0.00
 0.6100180E+01  0.292502E+06  0.000000E+00  0.364684E+06  0.000000E+00  0.207530E+06  0.000000E+00   92.98    0.00  117.82    0.00   95.26    0.00
 0.6041525E+01  0.279107E+06  0.000000E+00  0.346523E+06  0.000000E+00  0.122507E+06  0.000000E+00   93.85    0.00  115.88    0.00  100.57    0.00
 0.5983986E+01  0.265264E+06  0.000000E+00  0.328223E+06  0.000000E+00  0.396219E+05  0.000000E+00   94.81    0.00  114.24    0.00  127.60    0.00
 0.5927534E+01  0.250892E+06  0.000000E+00  0.310126E+06  0.000000E+00  0.664633E+05  0.000000E+00   95.87    0.00  112.81    0.00  248.42    0.00
 0.5872136E+01  0.235970E+06  0.000000E+00  0.292296E+06  0.000000E+00  0.161682E+06  0.000000E+00   97.02    0.00  111.54    0.00  261.72    0.00
 0.5817764E+01  0.220433E+06  0.000000E+00  0.274750E+06  0.000000E+00  0.264991E+06  0.000000E+00   98.27    0.00  110.46    0.00  265.56    0.00
 0.5764390E+01  0.204373E+06  0.000000E+00  0.257984E+06  0.000000E+00  0.373505E+06  0.000000E+00   99.67    0.00  109.58    0.00  267.63    0.00
 0.5711987E+01  0.187654E+06  0.000000E+00  0.242076E+06  0.000000E+00  0.487521E+06  0.000000E+00  101.26    0.00  108.91    0.00  269.10    0.00
 0.5660527E+01  0.170160E+06  0.000000E+00  0.226857E+06  0.000000E+00  0.608406E+06  0.000000E+00  103.09    0.00  108.51    0.00  270.27    0.00
 0.5609987E+01  0.151831E+06  0.000000E+00  0.212404E+06  0.000000E+00  0.737535E+06  0.000000E+00  105.31    0.00  108.31    0.00  271.22    0.00
 0.5560341E+01  0.132595E+06  0.000000E+00  0.198701E+06  0.000000E+00  0.877186E+06  0.000000E+00  108.09    0.00  108.21    0.00  271.98    0.00
 0.5511566E+01  0.112398E+06  0.000000E+00  0.185579E+06  0.000000E+00  0.102989E+07  0.000000E+00  111.82    0.00  108.18    0.00  272.55    0.00
 0.5463640E+01  0.913340E+05  0.000000E+00  0.173235E+06  0.000000E+00  0.119930E+07  0.000000E+00  117.32    0.00  108.11    0.00  272.86    0.00
 0.5416539E+01  0.699343E+05  0.000000E+00  0.161624E+06  0.000000E+00  0.138642E+07  0.000000E+00  126.55    0.00  108.10    0.00  273.02    0.00
 0.5370244E+01  0.502401E+05  0.000000E+00  0.150646E+06  0.000000E+00  0.159431E+07  0.000000E+00  144.64    0.00  108.23    0.00  273.02    0.00
 0.5324734E+01  0.399854E+05  0.000000E+00  0.140338E+06  0.000000E+00  0.182638E+07  0.000000E+00  180.85    0.00  108.49    0.00  272.89    0.00
 0.5279987E+01  0.511717E+05  0.000000E+00  0.130625E+06  0.000000E+00  0.208628E+07  0.000000E+00  220.60    0.00  108.95    0.00  272.62    0.00
 0.5235988E+01  0.794565E+05  0.000000E+00  0.121349E+06  0.000000E+00  0.238038E+07  0.000000E+00  241.58    0.00  109.64    0.00  272.19    0.00
 0.5192715E+01  0.117238E+06  0.000000E+00  0.112738E+06  0.000000E+00  0.271412E+07  0.000000E+00  251.32    0.00  110.52    0.00  271.51    0.00
 0.5150152E+01  0.162870E+06  0.000000E+00  0.104760E+06  0.000000E+00  0.310040E+07  0.000000E+00  256.24    0.00  111.60    0.00  270.48    0.00
 0.5108281E+01  0.217207E+06  0.000000E+00  0.973417E+05  0.000000E+00  0.355428E+07  0.000000E+00  258.55    0.00  112.78    0.00  268.96    0.00
 0.5067085E+01  0.281870E+06  0.000000E+00  0.903809E+05  0.000000E+00  0.409102E+07  0.000000E+00  259.13    0.00  114.18    0.00  266.82    0.00
 0.5026548E+01  0.359516E+06  0.000000E+00  0.839015E+05  0.000000E+00  0.472957E+07  0.000000E+00  258.19    0.00  115.83    0.00  263.80    0.00
 0.4986655E+01  0.452664E+06  0.000000E+00  0.778735E+05  0.000000E+00  0.548631E+07  0.000000E+00  255.68    0.00  117.67    0.00  259.66    0.00
 0.4947390E+01  0.563214E+06  0.000000E+00  0.723308E+05  0.000000E+00  0.636788E+07  0.000000E+00  251.27    0.00  119.64    0.00  253.91    0.00
 0.4908739E+01  0.688716E+06  0.000000E+00  0.672430E+05  0.000000E+00  0.733143E+07  0.000000E+00  244.62    0.00  121.89    0.00  246.10    0.00
 0.4870687E+01  0.815176E+06  0.000000E+00  0.625921E+05  0.000000E+00  0.823321E+07  0.000000E+00  235.48    0.00  124.38    0.00  235.95    0.00
 0.4833220E+01  0.914805E+06  0.000000E+00  0.583230E+05  0.000000E+00  0.882067E+07  0.000000E+00  224.19    0.00  126.98    0.00  223.72    0.00
 0.4796325E+01  0.955809E+06  0.000000E+00  0.543950E+05  0.000000E+00  0.884193E+07  0.000000E+00  212.16    0.00  129.76    0.00  210.81    0.00
 0.4759989E+01  0.933403E+06  0.000000E+00  0.507968E+05  0.000000E+00  0.832121E+07  0.000000E+00  201.17    0.00  132.67    0.00  198.93    0.00
 0.4724199E+01  0.869557E+06  0.000000E+00  0.475683E+05  0.000000E+00  0.749417E+07  0.000000E+00  192.47    0.00  135.75    0.00  189.33    0.00
 0.4688944E+01  0.790656E+06  0.000000E+00  0.446909E+05  0.000000E+00  0.660400E+07  0.000000E+00  186.25    0.00  138.96    0.00  182.23    0.00
 0.4654212E+01  0.713311E+06  0.000000E+00  0.421772E+05  0.000000E+00  0.578317E+07  0.000000E+00  182.26    0.00  142.27    0.00  177.38    0.00
 0.4619989E+01  0.644670E+06  0.000000E+00  0.399465E+05  0.000000E+00  0.508149E+07  0.000000E+00  180.08    0.00  145.60    0.00  174.37    0.00
 0.4586267E+01  0.585243E+06  0.000000E+00  0.380468E+05  0.000000E+00  0.448958E+07  0.000000E+00  179.09    0.00  149.05    0.00  172.55    0.00
 0.4553033E+01  0.534444E+06  0.000000E+00  0.364444E+05  0.000000E+00  0.399110E+07  0.000000E+00  179.12    0.00  152.55    0.00  171.80    0.00
 0.4520278E+01  0.490852E+06  0.000000E+00  0.351210E+05  0.000000E+00  0.356844E+07  0.000000E+00  180.00    0.00  156.03    0.00  171.94    0.00
 0.4487990E+01  0.454602E+06  0.000000E+00  0.340115E+05  0.000000E+00  0.321564E+07  0.000000E+00  181.64    0.00  159.43    0.00  172.93    0.00
 0.4456160E+01  0.424328E+06  0.000000E+00  0.330454E+05  0.000000E+00  0.292194E+07  0.000000E+00  183.84    0.00  162.69    0.00  174.57    0.00
 0.4424778E+01  0.397935E+06  0.000000E+00  0.322365E+05  0.000000E+00  0.266592E+07  0.000000E+00  186.44    0.00  165.77    0.00  176.62    0.00
 0.4393836E+01  0.375545E+06  0.000000E+00  0.315775E+05  0.000000E+00  0.244484E+07  0.000000E+00  189.47    0.00  168.68    0.00  179.21    0.00
 0.4363323E+01  0.357299E+06  0.000000E+00  0.310360E+05  0.000000E+00  0.225752E+07  0.000000E+00  192.91    0.00  171.36    0.00  182.39    0.00
 0.4333231E+01  0.342728E+06  0.000000E+00  0.305310E+05  0.000000E+00  0.210248E+07  0.000000E+00  196.61    0.00  173.83    0.00  186.03    0.00
 0.4303552E+01  0.331069E+06  0.000000E+00  0.300508E+05  0.000000E+00  0.197358E+07  0.000000E+00  200.54    0.00  176.13    0.00  190.05    0.00
 0.4274276E+01  0.321756E+06  0.000000E+00  0.296448E+05  0.000000E+00  0.186397E+07  0.000000E+00  204.61    0.00  178.24    0.00  194.39    0.00
 0.4245396E+01  0.315470E+06  0.000000E+00  0.292852E+05  0.000000E+00  0.177897E+07  0.000000E+00  208.80    0.00  180.17    0.00  199.11    0.00
 0.4216903E+01  0.312216E+06  0.000000E+00  0.289340E+05  0.000000E+00  0.171905E+07  0.000000E+00  213.00    0.00  181.92    0.00  204.02    0.00
 0.4188790E+01  0.311048E+06  0.000000E+00  0.285584E+05  0.000000E+00  0.167833E+07  0.000000E+00  217.14    0.00  183.52    0.00  208.97    0.00
 0.4161050E+01  0.311634E+06  0.000000E+00  0.282157E+05  0.000000E+00  0.165314E+07  0.000000E+00  221.16    0.00  184.93    0.00  213.90    0.00
 0.4133675E+01  0.314188E+06  0.000000E+00  0.278664E+05  0.000000E+00  0.164398E+07  0.000000E+00  225.04    0.00  186.09    0.00  218.75    0.00
 0.4106657E+01  0.318448E+06  0.000000E+00  0.274972E+05  0.000000E+00  0.165015E+07  0.000000E+00  228.69    0.00  186.98    0.00  223.41    0.00
 0.4079991E+01  0.323976E+06  0.000000E+00  0.271162E+05  0.000000E+00  0.166892E+07  0.000000E+00  232.09    0.00  187.77    0.00  227.73    0.00
 0.4053668E+01  0.330558E+06  0.000000E+00  0.267491E+05  0.000000E+00  0.169829E+07  0.000000E+00  235.24    0.00  188.36    0.00  231.75    0.00
 0.4027683E+01  0.338229E+06  0.000000E+00  0.264329E+05  0.000000E+00  0.173745E+07  0.000000E+00  238.11    0.00  188.81    0.00  235.41    0.00
 0.4002029E+01  0.346799E+06  0.000000E+00  0.261684E+05  0.000000E+00  0.178446E+07  0.000000E+00  240.68    0.00  189.18    0.00  238.67    0.00
 0.3976700E+01  0.355757E+06  0.000000E+00  0.260060E+05  0.000000E+00  0.183597E+07  0.000000E+00  242.98    0.00  189.54    0.00  241.53    0.00
 0.3951689E+01  0.364866E+06  0.000000E+00  0.259706E+05  0.000000E+00  0.189045E+07  0.000000E+00  245.02    0.00  189.83    0.00  244.03    0.00
 0.3926991E+01  0.374078E+06  0.000000E+00  0.261343E+05  0.000000E+00  0.194796E+07  0.000000E+00  246.76    0.00  190.05    0.00  246.17    0.00
 0.3902600E+01  0.383242E+06  0.000000E+00  0.265862E+05  0.000000E+00  0.200712E+07  0.000000E+00  248.25    0.00  190.26    0.00  247.98    0.00
 0.3878510E+01  0.391847E+06  0.000000E+00  0.273792E+05  0.000000E+00  0.206428E+07  0.000000E+00  249.50    0.00  190.36    0.00  249.47    0.00
 0.3854715E+01  0.399844E+06  0.000000E+00  0.286643E+05  0.000000E+00  0.211828E+07  0.000000E+00  250.54    0.00  190.27    0.00  250.66    0.00
 0.3831211E+01  0.407037E+06  0.000000E+00  0.307044E+05  0.000000E+00  0.216786E+07  0.000000E+00  251.32    0.00  189.86    0.00  251.55    0.00
 0.3807991E+01  0.413243E+06  0.000000E+00  0.339296E+05  0.000000E+00  0.221271E+07  0.000000E+00  251.92    0.00  188.83    0.00  252.21    0.00
 0.3785052E+01  0.417954E+06  0.000000E+00  0.390786E+05  0.000000E+00  0.225004E+07  0.000000E+00  252.36    0.00  186.58    0.00  252.67    0.00
 0.3762387E+01  0.421315E+06  0.000000E+00  0.476701E+05  0.000000E+00  0.227978E+07  0.000000E+00  252.66    0.00  181.72    0.00  252.92    0.00
 0.3739991E+01  0.423130E+06  0.000000E+00  0.626746E+05  0.000000E+00  0.229901E+07  0.000000E+00  252.83    0.00  170.89    0.00  252.97    0.00
 0.3717861E+01  0.424043E+06  0.000000E+00  0.842963E+05  0.000000E+00  0.230693E+07  0.000000E+00  252.88    0.00  146.58    0.00  252.88    0.00
 0.3695991E+01  0.422997E+06  0.000000E+00  0.830522E+05  0.000000E+00  0.230097E+07  0.000000E+00  252.63    0.00  107.84    0.00  252.73    0.00
 0.3674377E+01  0.418142E+06  0.000000E+00  0.570521E+05  0.000000E+00  0.228526E+07  0.000000E+00  252.29    0.00   81.34    0.00  252.52    0.00
 0.3653015E+01  0.411019E+06  0.000000E+00  0.391332E+05  0.000000E+00  0.225734E+07  0.000000E+00  252.03    0.00   69.49    0.00  252.20    0.00
 0.3631899E+01  0.402030E+06  0.000000E+00  0.289652E+05  0.000000E+00  0.221660E+07  0.000000E+00  251.81    0.00   63.95    0.00  251.88    0.00
 0.3611026E+01  0.391170E+06  0.000000E+00  0.228052E+05  0.000000E+00  0.216334E+07  0.000000E+00  251.62    0.00   61.32    0.00  251.58    0.00
 0.3590392E+01  0.378667E+06  0.000000E+00  0.187715E+05  0.000000E+00  0.209925E+07  0.000000E+00  251.48    0.00   60.07    0.00  251.29    0.00
 0.3569992E+01  0.364322E+06  0.000000E+00  0.159633E+05  0.000000E+00  0.202350E+07  0.000000E+00  251.43    0.00   59.41    0.00  251.10    0.00
 0.3549822E+01  0.348596E+06  0.000000E+00  0.139293E+05  0.000000E+00  0.193929E+07  0.000000E+00  251.51    0.00   59.19    0.00  251.04    0.00
 0.3529880E+01  0.331675E+06  0.000000E+00  0.123842E+05  0.000000E+00  0.184709E+07  0.000000E+00  251.74    0.00   59.20    0.00  251.12    0.00
 0.3510159E+01  0.313917E+06  0.000000E+00  0.111526E+05  0.000000E+00  0.174935E+07  0.000000E+00  252.12    0.00   59.44    0.00  251.35    0.00
 0.3490659E+01  0.295512E+06  0.000000E+00  0.101429E+05  0.000000E+00  0.164705E+07  0.000000E+00  252.69    0.00   59.81    0.00  251.78    0.00
 0.3471373E+01  0.276678E+06  0.000000E+00  0.931013E+04  0.000000E+00  0.154144E+07  0.000000E+00  253.52    0.00   60.47    0.00  252.47    0.00
 0.3452300E+01  0.257597E+06  0.000000E+00  0.860413E+04  0.000000E+00  0.143367E+07  0.000000E+00  254.56    0.00   61.54    0.00  253.39    0.00
 0.3433435E+01  0.238661E+06  0.000000E+00  0.798255E+04  0.000000E+00  0.132598E+07  0.000000E+00  255.86    0.00   62.95    0.00  254.58    0.00
 0.3414775E+01  0.219853E+06  0.000000E+00  0.747069E+04  0.000000E+00  0.121924E+07  0.000000E+00  257.48    0.00   64.93    0.00  256.13    0.00
 0.3396317E+01  0.201274E+06  0.000000E+00  0.704021E+04  0.000000E+00  0.111361E+07  0.000000E+00  259.42    0.00   67.38    0.00  258.01    0.00
 0.3378057E+01  0.183114E+06  0.000000E+00  0.668513E+04  0.000000E+00  0.101048E+07  0.000000E+00  261.71    0.00   70.23    0.00  260.29    0.00
 0.3359992E+01  0.165416E+06  0.000000E+00  0.642385E+04  0.000000E+00  0.910030E+06  0.000000E+00  264.43    0.00   73.47    0.00  263.05    0.00
 0.3342120E+01  0.148185E+06  0.000000E+00  0.625388E+04  0.000000E+00  0.812062E+06  0.000000E+00  267.65    0.00   76.98    0.00  266.35    0.00
 0.3324437E+01  0.131482E+06  0.000000E+00  0.618252E+04  0.000000E+00  0.717042E+06  0.000000E+00  271.51    0.00   80.79    0.00  270.38    0.00
 0.3306940E+01  0.115308E+06  0.000000E+00  0.624123E+04  0.000000E+00  0.625355E+06  0.000000E+00  276.16    0.00   84.57    0.00  275.30    0.00
 0.3289626E+01  0.998144E+05  0.000000E+00  0.641038E+04  0.000000E+00  0.538038E+06  0.000000E+00  281.92    0.00   87.72    0.00  281.50    0.00
 0.3272492E+01  0.850878E+05  0.000000E+00  0.662433E+04  0.000000E+00  0.456249E+06  0.000000E+00  289.34    0.00   89.70    0.00  289.61    0.00
 0.3255537E+01  0.714708E+05  0.000000E+00  0.686315E+04  0.000000E+00  0.382179E+06  0.000000E+00  299.25    0.00   90.71    0.00  300.60    0.00
 0.3238755E+01  0.598082E+05  0.000000E+00  0.709702E+04  0.000000E+00  0.321764E+06  0.000000E+00  313.15    0.00   90.80    0.00  316.06    0.00
 0.3222146E+01  0.518952E+05  0.000000E+00  0.729647E+04  0.000000E+00  0.286755E+06  0.000000E+00  332.60    0.00   90.18    0.00  337.17    0.00
 0.3205707E+01  0.505448E+05  0.000000E+00  0.743538E+04  0.000000E+00  0.292854E+06  0.000000E+00  356.93    0.00   89.03    0.00    1.83    0.00
 0.3189434E+01  0.580795E+05  0.000000E+00  0.751549E+04  0.000000E+00  0.348327E+06  0.000000E+00   20.81    0.00   87.12    0.00   24.10    0.00
 0.3173326E+01  0.744817E+05  0.000000E+00  0.748912E+04  0.000000E+00  0.449891E+06  0.000000E+00   39.22    0.00   84.84    0.00   40.66    0.00
 0.3157380E+01  0.997895E+05  0.000000E+00  0.736925E+04  0.000000E+00  0.598583E+06  0.000000E+00   51.66    0.00   82.45    0.00   51.89    0.00
 0.3141593E+01  0.136415E+06  0.000000E+00  0.717357E+04  0.000000E+00  0.809478E+06  0.000000E+00   59.48    0.00   80.03    0.00   59.02    0.00
 0.3125963E+01  0.191458E+06  0.000000E+00  0.692719E+04  0.000000E+00  0.112337E+07  0.000000E+00   62.73    0.00   77.66    0.00   61.96    0.00
 0.3110488E+01  0.277468E+06  0.000000E+00  0.662844E+04  0.000000E+00  0.160950E+07  0.000000E+00   58.50    0.00   75.70    0.00   57.67    0.00