VARIABLES="X" "Y" "Z" "NX" "NY" "NZ" "A"
 ZONE N=        1590 , E=        1472  , F=FEPOINT,ET=QUADRILATERAL
  -0.1100000E+02   0.1250000E+02  -0.1142857E+01   0.0000000E+00   0.0000000E+00   0.0000000E+00   0.0000000E+00
  -0.1143934E+02   0.1143934E+02  -0.1142857E+01   0.0000000E+00   0.0000000E+00   0.0000000E+00   0.0000000E+00
  -0.1143934E+02   0.1356066E+02  -0.1142857E+01   0.0000000E+00   0.0000000E+00   0.0000000E+00   0.0000000E+00
  -0.1250000E+02   0.1400000E+02  -0.1142857E+01   0.0000000E+00   0.0000000E+00   0.0000000E+00   0.0000000E+00
  -0.1356066E+02   0.1356066E+02  -0.1142857E+01   0.0000000E+00   0.0000000E+00   0.0000000E+00   0.0000000E+00
  -0.1400000E+02   0.1250000E+02  -0.1142857E+01   0.0000000E+00   0.0000000E+00   0.0000000E+00   0.0000000E+00
  -0.1356066E+02   0.1143934E+02  -0.1142857E+01   0.0000000E+00   0.0000000E+00   0.0000000E+00   0.0000000E+00
  -0.1250000E+02   0.1100000E+02  -0.1142857E+01   0.0000000E+00   0.0000000E+00   0.0000000E+00   0.0000000E+00
  -0.1100000E+02   0.1250000E+02  -0.2857143E+01   0.0000000E+00   0.0000000E+00   0.0000000E+00   0.0000000E+00
  -0.1143934E+02   0.1143934E+02  -0.2857143E+01   0.0000000E+00   0.0000000E+00   0.0000000E+00   0.0000000E+00
  -0.1143934E+02   0.1356066E+02  -0.2857143E+01   0.0000000E+00   0.0000000E+00   0.0000000E+00   0.0000000E+00
  -0.1250000E+02   0.1400000E+02  -0.2857143E+01   0.0000000E+00   0.0000000E+00   0.0000000E+00   0.0000000E+00
  -0.1356066E+02   0.1356066E+02  -0.2857143E+01   0.0000000E+00   0.0000000E+00   0.0000000E+00   0.0000000E+00
  -0.1400000E+02   0.1250000E+02  -0.2857143E+01   0.0000000E+00   0.0000000E+00   0.0000000E+00   0.0000000E+00
  -0.1356066E+02   0.1143934E+02  -0.2857143E+01   0.0000000E+00   0.0000000E+00   0.0000000E+00   0.0000000E+00
  -0.1250000E+02   0.1100000E+02  -0.2857143E+01   0.0000000E+00   0.0000000E+00   0.0000000E+00   0.0000000E+00
  -0.1100000E+02   0.1250000E+02  -0.4571428E+01   0.0000000E+00   0.0000000E+00   0.0000000E+00   0.0000000E+00
  -0.1143934E+02   0.1143934E+02  -0.4571428E+01   0.0000000E+00   0.0000000E+00   0.0000000E+00   0.0000000E+00
  -0.1143934E+02   0.1356066E+02  -0.4571428E+01   0.0000000E+00   0.0000000E+00   0.0000000E+00   0.0000000E+00
  -0.1250000E+02   0.1400000E+02  -0.4571428E+01   0.0000000E+00   0.0000000E+00   0.0000000E+00   0.0000000E+00
  -0.1356066E+02   0.1356066E+02  -0.4571428E+01   0.0000000E+00   0.0000000E+00   0.0000000E+00   0.0000000E+00
  -0.1400000E+02   0.1250000E+02  -0.4571428E+01   0.0000000E+00   0.0000000E+00   0.0000000E+00   0.0000000E+00
  -0.1356066E+02   0.1143934E+02  -0.4571428E+01   0.0000000E+00   0.0000000E+00   0.0000000E+00   0.0000000E+00
  -0.1250000E+02   0.1100000E+02  -0.4571428E+01   0.0000000E+00   0.0000000E+00   0.0000000E+00   0.0000000E+00
  -0.1100000E+02   0.1250000E+02  -0.6285713E+01   0.0000000E+00   0.0000000E+00   0.0000000E+00   0.0000000E+00
  -0.1143934E+02   0.1143934E+02  -0.6285713E+01   0.0000000E+00   0.0000000E+00   0.0000000E+00   0.0000000E+00
  -0.1143934E+02   0.1356066E+02  -0.6285713E+01   0.0000000E+00   0.0000000E+00   0.0000000E+00   0.0000000E+00
  -0.1250000E+02   0.1400000E+02  -0.6285713E+01   0.0000000E+00   0.0000000E+00   0.0000000E+00   0.0000000E+00
  -0.1356066E+02   0.1356066E+02  -0.6285713E+01   0.0000000E+00   0.0000000E+00   0.0000000E+00   0.0000000E+00
  -0.1400000E+02   0.1250000E+02  -0.6285713E+01   0.0000000E+00   0.0000000E+00   0.0000000E+00   0.0000000E+00
  -0.1356066E+02   0.1143934E+02  -0.6285713E+01   0.0000000E+00   0.0000000E+00   0.0000000E+00   0.0000000E+00
  -0.1250000E+02   0.1100000E+02  -0.6285713E+01   0.0000000E+00   0.0000000E+00   0.0000000E+00   0.0000000E+00
  -0.1100000E+02   0.1250000E+02  -0.8000000E+01   0.0000000E+00   0.0000000E+00   0.0000000E+00   0.0000000E+00
  -0.1143934E+02   0.1143934E+02  -0.8000000E+01   0.0000000E+00   0.0000000E+00   0.0000000E+00   0.0000000E+00
  -0.1143934E+02   0.1356066E+02  -0.8000000E+01   0.0000000E+00   0.0000000E+00   0.0000000E+00   0.0000000E+00
  -0.1250000E+02   0.1400000E+02  -0.8000000E+01   0.0000000E+00   0.0000000E+00   0.0000000E+00   0.0000000E+00
  -0.1356066E+02   0.1356066E+02  -0.8000000E+01   0.0000000E+00   0.0000000E+00   0.0000000E+00   0.0000000E+00
  -0.1400000E+02   0.1250000E+02  -0.8000000E+01   0.0000000E+00   0.0000000E+00   0.0000000E+00   0.0000000E+00
  -0.1356066E+02   0.1143934E+02  -0.8000000E+01   0.0000000E+00   0.0000000E+00   0.0000000E+00   0.0000000E+00
  -0.1250000E+02   0.1100000E+02  -0.8000000E+01   0.0000000E+00   0.0000000E+00   0.0000000E+00   0.0000000E+00
  -0.1100000E+02   0.1100000E+02  -0.8000000E+01   0.0000000E+00   0.0000000E+00   0.0000000E+00   0.0000000E+00
  -0.1100000E+02   0.1400000E+02  -0.8000000E+01   0.0000000E+00   0.0000000E+00   0.0000000E+00   0.0000000E+00
  -0.1400000E+02   0.1400000E+02  -0.8000000E+01   0.0000000E+00   0.0000000E+00   0.0000000E+00   0.0000000E+00
  -0.1400000E+02   0.1100000E+02  -0.8000000E+01   0.0000000E+00   0.0000000E+00   0.0000000E+00   0.0000000E+00
   0.1400000E+02   0.1250000E+02  -0.1142857E+01   0.0000000E+00   0.0000000E+00   0.0000000E+00   0.0000000E+00
   0.1356066E+02   0.1143934E+02  -0.1142857E+01   0.0000000E+00   0.0000000E+00   0.0000000E+00   0.0000000E+00
   0.1356066E+02   0.1356066E+02  -0.1142857E+01   0.0000000E+00   0.0000000E+00   0.0000000E+00   0.0000000E+00
   0.1250000E+02   0.1400000E+02  -0.1142857E+01   0.0000000E+00   0.0000000E+00   0.0000000E+00   0.0000000E+00
   0.1143934E+02   0.1356066E+02  -0.1142857E+01   0.0000000E+00   0.0000000E+00   0.0000000E+00   0.0000000E+00
   0.1100000E+02   0.1250000E+02  -0.1142857E+01   0.0000000E+00   0.0000000E+00   0.0000000E+00   0.0000000E+00
   0.1143934E+02   0.1143934E+02  -0.1142857E+01   0.0000000E+00   0.0000000E+00   0.0000000E+00   0.0000000E+00
   0.1250000E+02   0.1100000E+02  -0.1142857E+01   0.0000000E+00   0.0000000E+00   0.0000000E+00   0.0000000E+00
   0.1400000E+02   0.1250000E+02  -0.2857143E+01   0.0000000E+00   0.0000000E+00   0.0000000E+00   0.0000000E+00
   0.1356066E+02   0.1143934E+02  -0.2857143E+01   0.0000000E+00   0.0000000E+00   0.0000000E+00   0.0000000E+00
   0.1356066E+02   0.1356066E+02  -0.2857143E+01   0.0000000E+00   0.0000000E+00   0.0000000E+00   0.0000000E+00
   0.1250000E+02   0.1400000E+02  -0.2857143E+01   0.0000000E+00   0.0000000E+00   0.0000000E+00   0.0000000E+00
   0.1143934E+02   0.1356066E+02  -0.2857143E+01   0.0000000E+00   0.0000000E+00   0.0000000E+00   0.0000000E+00
   0.1100000E+02   0.1250000E+02  -0.2857143E+01   0.0000000E+00   0.0000000E+00   0.0000000E+00   0.0000000E+00
   0.1143934E+02   0.1143934E+02  -0.2857143E+01   0.0000000E+00   0.0000000E+00   0.0000000E+00   0.0000000E+00
   0.1250000E+02   0.1100000E+02  -0.2857143E+01   0.0000000E+00   0.0000000E+00   0.0000000E+00   0.0000000E+00
   0.1400000E+02   0.1250000E+02  -0.4571428E+01   0.0000000E+00   0.0000000E+00   0.0000000E+00   0.0000000E+00
   0.1356066E+02   0.1143934E+02  -0.4571428E+01   0.0000000E+00   0.0000000E+00   0.0000000E+00   0.0000000E+00
   0.1356066E+02   0.1356066E+02  -0.4571428E+01   0.0000000E+00   0.0000000E+00   0.0000000E+00   0.0000000E+00
   0.1250000E+02   0.1400000E+02  -0.4571428E+01   0.0000000E+00   0.0000000E+00   0.0000000E+00   0.0000000E+00
   0.1143934E+02   0.1356066E+02  -0.4571428E+01   0.0000000E+00   0.0000000E+00   0.0000000E+00   0.0000000E+00
   0.1100000E+02   0.1250000E+02  -0.4571428E+01   0.0000000E+00   0.0000000E+00   0.0000000E+00   0.0000000E+00
   0.1143934E+02   0.1143934E+02  -0.4571428E+01   0.0000000E+00   0.0000000E+00   0.0000000E+00   0.0000000E+00
   0.1250000E+02   0.1100000E+02  -0.4571428E+01   0.0000000E+00   0.0000000E+00   0.0000000E+00   0.0000000E+00
   0.1400000E+02   0.1250000E+02  -0.6285713E+01   0.0000000E+00   0.0000000E+00   0.0000000E+00   0.0000000E+00
   0.1356066E+02   0.1143934E+02  -0.6285713E+01   0.0000000E+00   0.0000000E+00   0.0000000E+00   0.0000000E+00
   0.1356066E+02   0.1356066E+02  -0.6285713E+01   0.0000000E+00   0.0000000E+00   0.0000000E+00   0.0000000E+00
   0.1250000E+02   0.1400000E+02  -0.6285713E+01   0.0000000E+00   0.0000000E+00   0.0000000E+00   0.0000000E+00
   0.1143934E+02   0.1356066E+02  -0.6285713E+01   0.0000000E+00   0.0000000E+00   0.0000000E+00   0.0000000E+00
   0.1100000E+02   0.1250000E+02  -0.6285713E+01   0.0000000E+00   0.0000000E+00   0.0000000E+00   0.0000000E+00
   0.1143934E+02   0.1143934E+02  -0.6285713E+01   0.0000000E+00   0.0000000E+00   0.0000000E+00   0.0000000E+00
   0.1250000E+02   0.1100000E+02  -0.6285713E+01   0.0000000E+00   0.0000000E+00   0.0000000E+00   0.0000000E+00
   0.1400000E+02   0.1250000E+02  -0.8000000E+01   0.0000000E+00   0.0000000E+00   0.0000000E+00   0.0000000E+00
   0.1356066E+02   0.1143934E+02  -0.8000000E+01   0.0000000E+00   0.0000000E+00   0.0000000E+00   0.0000000E+00
   0.1356066E+02   0.1356066E+02  -0.8000000E+01   0.0000000E+00   0.0000000E+00   0.0000000E+00   0.0000000E+00
   0.1250000E+02   0.1400000E+02  -0.8000000E+01   0.0000000E+00   0.0000000E+00   0.0000000E+00   0.0000000E+00
   0.1143934E+02   0.1356066E+02  -0.8000000E+01   0.0000000E+00   0.0000000E+00   0.0000000E+00   0.0000000E+00
   0.1100000E+02   0.1250000E+02  -0.8000000E+01   0.0000000E+00   0.0000000E+00   0.0000000E+00   0.0000000E+00
   0.1143934E+02   0.1143934E+02  -0.8000000E+01   0.0000000E+00   0.0000000E+00   0.0000000E+00   0.0000000E+00
   0.1250000E+02   0.1100000E+02  -0.8000000E+01   0.0000000E+00   0.0000000E+00   0.0000000E+00   0.0000000E+00
   0.1400000E+02   0.1100000E+02  -0.8000000E+01   0.0000000E+00   0.0000000E+00   0.0000000E+00   0.0000000E+00
   0.1400000E+02   0.1400000E+02  -0.8000000E+01   0.0000000E+00   0.0000000E+00   0.0000000E+00   0.0000000E+00
   0.1100000E+02   0.1400000E+02  -0.8000000E+01   0.0000000E+00   0.0000000E+00   0.0000000E+00   0.0000000E+00
   0.1100000E+02   0.1100000E+02  -0.8000000E+01   0.0000000E+00   0.0000000E+00   0.0000000E+00   0.0000000E+00
  -0.1143934E+02   0.1356066E+02  -0.1000000E+02   0.0000000E+00   0.0000000E+00   0.0000000E+00   0.0000000E+00
  -0.1100000E+02   0.1250000E+02  -0.1000000E+02   0.0000000E+00   0.0000000E+00   0.0000000E+00   0.0000000E+00
  -0.1143934E+02   0.1356066E+02  -0.1200000E+02   0.0000000E+00   0.0000000E+00   0.0000000E+00   0.0000000E+00
  -0.1100000E+02   0.1250000E+02  -0.1200000E+02   0.0000000E+00   0.0000000E+00   0.0000000E+00   0.0000000E+00
  -0.1143934E+02   0.1143934E+02  -0.1000000E+02   0.0000000E+00   0.0000000E+00   0.0000000E+00   0.0000000E+00
  -0.1143934E+02   0.1143934E+02  -0.1200000E+02   0.0000000E+00   0.0000000E+00   0.0000000E+00   0.0000000E+00
  -0.1250000E+02   0.1100000E+02  -0.1000000E+02   0.0000000E+00   0.0000000E+00   0.0000000E+00   0.0000000E+00
  -0.1250000E+02   0.1100000E+02  -0.1200000E+02   0.0000000E+00   0.0000000E+00   0.0000000E+00   0.0000000E+00
  -0.1356066E+02   0.1143934E+02  -0.1000000E+02   0.0000000E+00   0.0000000E+00   0.0000000E+00   0.0000000E+00
  -0.1356066E+02   0.1143934E+02  -0.1200000E+02   0.0000000E+00   0.0000000E+00   0.0000000E+00   0.0000000E+00
  -0.1400000E+02   0.1250000E+02  -0.1000000E+02   0.0000000E+00   0.0000000E+00   0.0000000E+00   0.0000000E+00
  -0.1400000E+02   0.1250000E+02  -0.1200000E+02   0.0000000E+00   0.0000000E+00   0.0000000E+00   0.0000000E+00
  -0.1356066E+02   0.1356066E+02  -0.1000000E+02   0.0000000E+00   0.0000000E+00   0.0000000E+00   0.0000000E+00
  -0.1356066E+02   0.1356066E+02  -0.1200000E+02   0.0000000E+00   0.0000000E+00   0.0000000E+00   0.0000000E+00
  -0.1250000E+02   0.1400000E+02  -0.1000000E+02   0.0000000E+00   0.0000000E+00   0.0000000E+00   0.0000000E+00
  -0.1250000E+02   0.1400000E+02  -0.1200000E+02   0.0000000E+00   0.0000000E+00   0.0000000E+00   0.0000000E+00
  -0.1100000E+02   0.1400000E+02  -0.1000000E+02   0.0000000E+00   0.0000000E+00   0.0000000E+00   0.0000000E+00
  -0.1100000E+02   0.1100000E+02  -0.1000000E+02   0.0000000E+00   0.0000000E+00   0.0000000E+00   0.0000000E+00
  -0.1400000E+02   0.1100000E+02  -0.1000000E+02   0.0000000E+00   0.0000000E+00   0.0000000E+00   0.0000000E+00
  -0.1400000E+02   0.1400000E+02  -0.1000000E+02   0.0000000E+00   0.0000000E+00   0.0000000E+00   0.0000000E+00
  -0.1250000E+02   0.1250000E+02  -0.1200000E+02   0.0000000E+00   0.0000000E+00   0.0000000E+00   0.0000000E+00
   0.1356066E+02   0.1356066E+02  -0.1000000E+02   0.0000000E+00   0.0000000E+00   0.0000000E+00   0.0000000E+00
   0.1400000E+02   0.1250000E+02  -0.1000000E+02   0.0000000E+00   0.0000000E+00   0.0000000E+00   0.0000000E+00
   0.1356066E+02   0.1356066E+02  -0.1200000E+02   0.0000000E+00   0.0000000E+00   0.0000000E+00   0.0000000E+00
   0.1400000E+02   0.1250000E+02  -0.1200000E+02   0.0000000E+00   0.0000000E+00   0.0000000E+00   0.0000000E+00
   0.1356066E+02   0.1143934E+02  -0.1000000E+02   0.0000000E+00   0.0000000E+00   0.0000000E+00   0.0000000E+00
   0.1356066E+02   0.1143934E+02  -0.1200000E+02   0.0000000E+00   0.0000000E+00   0.0000000E+00   0.0000000E+00
   0.1250000E+02   0.1100000E+02  -0.1000000E+02   0.0000000E+00   0.0000000E+00   0.0000000E+00   0.0000000E+00
   0.1250000E+02   0.1100000E+02  -0.1200000E+02   0.0000000E+00   0.0000000E+00   0.0000000E+00   0.0000000E+00
   0.1143934E+02   0.1143934E+02  -0.1000000E+02   0.0000000E+00   0.0000000E+00   0.0000000E+00   0.0000000E+00
   0.1143934E+02   0.1143934E+02  -0.1200000E+02   0.0000000E+00   0.0000000E+00   0.0000000E+00   0.0000000E+00
   0.1100000E+02   0.1250000E+02  -0.1000000E+02   0.0000000E+00   0.0000000E+00   0.0000000E+00   0.0000000E+00
   0.1100000E+02   0.1250000E+02  -0.1200000E+02   0.0000000E+00   0.0000000E+00   0.0000000E+00   0.0000000E+00
   0.1143934E+02   0.1356066E+02  -0.1000000E+02   0.0000000E+00   0.0000000E+00   0.0000000E+00   0.0000000E+00
   0.1143934E+02   0.1356066E+02  -0.1200000E+02   0.0000000E+00   0.0000000E+00   0.0000000E+00   0.0000000E+00
   0.1250000E+02   0.1400000E+02  -0.1000000E+02   0.0000000E+00   0.0000000E+00   0.0000000E+00   0.0000000E+00
   0.1250000E+02   0.1400000E+02  -0.1200000E+02   0.0000000E+00   0.0000000E+00   0.0000000E+00   0.0000000E+00
   0.1400000E+02   0.1400000E+02  -0.1000000E+02   0.0000000E+00   0.0000000E+00   0.0000000E+00   0.0000000E+00
   0.1400000E+02   0.1100000E+02  -0.1000000E+02   0.0000000E+00   0.0000000E+00   0.0000000E+00   0.0000000E+00
   0.1100000E+02   0.1100000E+02  -0.1000000E+02   0.0000000E+00   0.0000000E+00   0.0000000E+00   0.0000000E+00
   0.1100000E+02   0.1400000E+02  -0.1000000E+02   0.0000000E+00   0.0000000E+00   0.0000000E+00   0.0000000E+00
   0.1250000E+02   0.1250000E+02  -0.1200000E+02   0.0000000E+00   0.0000000E+00   0.0000000E+00   0.0000000E+00
   0.1350000E+02   0.1100000E+02  -0.1000000E+02   0.0000000E+00   0.0000000E+00   0.0000000E+00   0.0000000E+00
   0.1350000E+02   0.1100000E+02  -0.8000000E+01   0.0000000E+00   0.0000000E+00   0.0000000E+00   0.0000000E+00
   0.1150000E+02   0.1100000E+02  -0.1000000E+02   0.0000000E+00   0.0000000E+00   0.0000000E+00   0.0000000E+00
   0.1150000E+02   0.1100000E+02  -0.8000000E+01   0.0000000E+00   0.0000000E+00   0.0000000E+00   0.0000000E+00
   0.1100000E+02   0.1150000E+02  -0.1000000E+02   0.0000000E+00   0.0000000E+00   0.0000000E+00   0.0000000E+00
   0.1100000E+02   0.1150000E+02  -0.8000000E+01   0.0000000E+00   0.0000000E+00   0.0000000E+00   0.0000000E+00
   0.1100000E+02   0.1350000E+02  -0.1000000E+02   0.0000000E+00   0.0000000E+00   0.0000000E+00   0.0000000E+00
   0.1100000E+02   0.1350000E+02  -0.8000000E+01   0.0000000E+00   0.0000000E+00   0.0000000E+00   0.0000000E+00
   0.1350000E+02   0.1050000E+02  -0.1000000E+02   0.0000000E+00   0.0000000E+00   0.0000000E+00   0.0000000E+00
   0.1350000E+02   0.1050000E+02  -0.8000000E+01   0.0000000E+00   0.0000000E+00   0.0000000E+00   0.0000000E+00
   0.1150000E+02   0.1050000E+02  -0.8000000E+01   0.0000000E+00   0.0000000E+00   0.0000000E+00   0.0000000E+00
   0.1150000E+02   0.1050000E+02  -0.1000000E+02   0.0000000E+00   0.0000000E+00   0.0000000E+00   0.0000000E+00
  -0.1350000E+02   0.1100000E+02  -0.1000000E+02   0.0000000E+00   0.0000000E+00   0.0000000E+00   0.0000000E+00
  -0.1350000E+02   0.1100000E+02  -0.8000000E+01   0.0000000E+00   0.0000000E+00   0.0000000E+00   0.0000000E+00
  -0.1150000E+02   0.1100000E+02  -0.1000000E+02   0.0000000E+00   0.0000000E+00   0.0000000E+00   0.0000000E+00
  -0.1150000E+02   0.1100000E+02  -0.8000000E+01   0.0000000E+00   0.0000000E+00   0.0000000E+00   0.0000000E+00
  -0.1100000E+02   0.1150000E+02  -0.1000000E+02   0.0000000E+00   0.0000000E+00   0.0000000E+00   0.0000000E+00
  -0.1100000E+02   0.1150000E+02  -0.8000000E+01   0.0000000E+00   0.0000000E+00   0.0000000E+00   0.0000000E+00
  -0.1100000E+02   0.1350000E+02  -0.1000000E+02   0.0000000E+00   0.0000000E+00   0.0000000E+00   0.0000000E+00
  -0.1100000E+02   0.1350000E+02  -0.8000000E+01   0.0000000E+00   0.0000000E+00   0.0000000E+00   0.0000000E+00
  -0.1350000E+02   0.1050000E+02  -0.1000000E+02   0.0000000E+00   0.0000000E+00   0.0000000E+00   0.0000000E+00
  -0.1350000E+02   0.1050000E+02  -0.8000000E+01   0.0000000E+00   0.0000000E+00   0.0000000E+00   0.0000000E+00
  -0.1150000E+02   0.1050000E+02  -0.8000000E+01   0.0000000E+00   0.0000000E+00   0.0000000E+00   0.0000000E+00
  -0.1150000E+02   0.1050000E+02  -0.1000000E+02   0.0000000E+00   0.0000000E+00   0.0000000E+00   0.0000000E+00
   0.1350000E+02   0.1000000E+01  -0.1000000E+02   0.0000000E+00   0.0000000E+00   0.0000000E+00   0.0000000E+00
   0.1350000E+02   0.1000000E+01  -0.8000000E+01   0.0000000E+00   0.0000000E+00   0.0000000E+00   0.0000000E+00
   0.1350000E+02   0.0000000E+00  -0.1000000E+02   0.0000000E+00   0.0000000E+00   0.0000000E+00   0.0000000E+00
   0.1350000E+02   0.0000000E+00  -0.8000000E+01   0.0000000E+00   0.0000000E+00   0.0000000E+00   0.0000000E+00
  -0.1150000E+02   0.1150000E+02  -0.1000000E+02   0.0000000E+00   0.0000000E+00   0.0000000E+00   0.0000000E+00
  -0.1350000E+02   0.0000000E+00  -0.1000000E+02   0.0000000E+00   0.0000000E+00   0.0000000E+00   0.0000000E+00
  -0.1350000E+02   0.0000000E+00  -0.8000000E+01   0.0000000E+00   0.0000000E+00   0.0000000E+00   0.0000000E+00
  -0.1350000E+02   0.1000000E+01  -0.1000000E+02   0.0000000E+00   0.0000000E+00   0.0000000E+00   0.0000000E+00
  -0.1350000E+02   0.1000000E+01  -0.8000000E+01   0.0000000E+00   0.0000000E+00   0.0000000E+00   0.0000000E+00
  -0.5000000E+01   0.1250000E+02  -0.1000000E+02   0.0000000E+00   0.0000000E+00   0.0000000E+00   0.0000000E+00
  -0.5000000E+01   0.1179289E+02  -0.9707107E+01   0.0000000E+00   0.0000000E+00   0.0000000E+00   0.0000000E+00
  -0.7000000E+01   0.1250000E+02  -0.1000000E+02   0.0000000E+00   0.0000000E+00   0.0000000E+00   0.0000000E+00
  -0.7000000E+01   0.1179289E+02  -0.9707107E+01   0.0000000E+00   0.0000000E+00   0.0000000E+00   0.0000000E+00
  -0.7000000E+01   0.1320711E+02  -0.9707107E+01   0.0000000E+00   0.0000000E+00   0.0000000E+00   0.0000000E+00
  -0.5000000E+01   0.1320711E+02  -0.9707107E+01   0.0000000E+00   0.0000000E+00   0.0000000E+00   0.0000000E+00
  -0.7000000E+01   0.1350000E+02  -0.9000000E+01   0.0000000E+00   0.0000000E+00   0.0000000E+00   0.0000000E+00
  -0.5000000E+01   0.1350000E+02  -0.9000000E+01   0.0000000E+00   0.0000000E+00   0.0000000E+00   0.0000000E+00
  -0.7000000E+01   0.1320711E+02  -0.8292893E+01   0.0000000E+00   0.0000000E+00   0.0000000E+00   0.0000000E+00
  -0.5000000E+01   0.1320711E+02  -0.8292893E+01   0.0000000E+00   0.0000000E+00   0.0000000E+00   0.0000000E+00
  -0.7000000E+01   0.1250000E+02  -0.8000000E+01   0.0000000E+00   0.0000000E+00   0.0000000E+00   0.0000000E+00
  -0.5000000E+01   0.1250000E+02  -0.8000000E+01   0.0000000E+00   0.0000000E+00   0.0000000E+00   0.0000000E+00
  -0.5000000E+01   0.1179289E+02  -0.8292893E+01   0.0000000E+00   0.0000000E+00   0.0000000E+00   0.0000000E+00
  -0.7000000E+01   0.1179289E+02  -0.8292893E+01   0.0000000E+00   0.0000000E+00   0.0000000E+00   0.0000000E+00
  -0.5000000E+01   0.1150000E+02  -0.9000000E+01   0.0000000E+00   0.0000000E+00   0.0000000E+00   0.0000000E+00
  -0.7000000E+01   0.1150000E+02  -0.9000000E+01   0.0000000E+00   0.0000000E+00   0.0000000E+00   0.0000000E+00
  -0.9000000E+01   0.1250000E+02  -0.1000000E+02   0.0000000E+00   0.0000000E+00   0.0000000E+00   0.0000000E+00
  -0.9000000E+01   0.1179289E+02  -0.9707107E+01   0.0000000E+00   0.0000000E+00   0.0000000E+00   0.0000000E+00
  -0.9000000E+01   0.1320711E+02  -0.9707107E+01   0.0000000E+00   0.0000000E+00   0.0000000E+00   0.0000000E+00
  -0.9000000E+01   0.1350000E+02  -0.9000000E+01   0.0000000E+00   0.0000000E+00   0.0000000E+00   0.0000000E+00
  -0.9000000E+01   0.1320711E+02  -0.8292893E+01   0.0000000E+00   0.0000000E+00   0.0000000E+00   0.0000000E+00
  -0.9000000E+01   0.1250000E+02  -0.8000000E+01   0.0000000E+00   0.0000000E+00   0.0000000E+00   0.0000000E+00
  -0.9000000E+01   0.1179289E+02  -0.8292893E+01   0.0000000E+00   0.0000000E+00   0.0000000E+00   0.0000000E+00
  -0.9000000E+01   0.1150000E+02  -0.9000000E+01   0.0000000E+00   0.0000000E+00   0.0000000E+00   0.0000000E+00
  -0.1100000E+02   0.1179289E+02  -0.9707107E+01   0.0000000E+00   0.0000000E+00   0.0000000E+00   0.0000000E+00
  -0.1100000E+02   0.1320711E+02  -0.9707107E+01   0.0000000E+00   0.0000000E+00   0.0000000E+00   0.0000000E+00
  -0.1100000E+02   0.1350000E+02  -0.9000000E+01   0.0000000E+00   0.0000000E+00   0.0000000E+00   0.0000000E+00
  -0.1100000E+02   0.1320711E+02  -0.8292893E+01   0.0000000E+00   0.0000000E+00   0.0000000E+00   0.0000000E+00
  -0.1100000E+02   0.1179289E+02  -0.8292893E+01   0.0000000E+00   0.0000000E+00   0.0000000E+00   0.0000000E+00
  -0.1100000E+02   0.1150000E+02  -0.9000000E+01   0.0000000E+00   0.0000000E+00   0.0000000E+00   0.0000000E+00
  -0.5000000E+01   0.1150000E+02  -0.1000000E+02   0.0000000E+00   0.0000000E+00   0.0000000E+00   0.0000000E+00
  -0.5000000E+01   0.1350000E+02  -0.1000000E+02   0.0000000E+00   0.0000000E+00   0.0000000E+00   0.0000000E+00
  -0.5000000E+01   0.1350000E+02  -0.8000000E+01   0.0000000E+00   0.0000000E+00   0.0000000E+00   0.0000000E+00
  -0.5000000E+01   0.1150000E+02  -0.8000000E+01   0.0000000E+00   0.0000000E+00   0.0000000E+00   0.0000000E+00
   0.3000000E+01   0.1250000E+02  -0.1000000E+02   0.0000000E+00   0.0000000E+00   0.0000000E+00   0.0000000E+00
   0.3000000E+01   0.1179289E+02  -0.9707107E+01   0.0000000E+00   0.0000000E+00   0.0000000E+00   0.0000000E+00
   0.1000000E+01   0.1250000E+02  -0.1000000E+02   0.0000000E+00   0.0000000E+00   0.0000000E+00   0.0000000E+00
   0.1000000E+01   0.1179289E+02  -0.9707107E+01   0.0000000E+00   0.0000000E+00   0.0000000E+00   0.0000000E+00
   0.1000000E+01   0.1320711E+02  -0.9707107E+01   0.0000000E+00   0.0000000E+00   0.0000000E+00   0.0000000E+00
   0.3000000E+01   0.1320711E+02  -0.9707107E+01   0.0000000E+00   0.0000000E+00   0.0000000E+00   0.0000000E+00
   0.1000000E+01   0.1350000E+02  -0.9000000E+01   0.0000000E+00   0.0000000E+00   0.0000000E+00   0.0000000E+00
   0.3000000E+01   0.1350000E+02  -0.9000000E+01   0.0000000E+00   0.0000000E+00   0.0000000E+00   0.0000000E+00
   0.1000000E+01   0.1320711E+02  -0.8292893E+01   0.0000000E+00   0.0000000E+00   0.0000000E+00   0.0000000E+00
   0.3000000E+01   0.1320711E+02  -0.8292893E+01   0.0000000E+00   0.0000000E+00   0.0000000E+00   0.0000000E+00
   0.1000000E+01   0.1250000E+02  -0.8000000E+01   0.0000000E+00   0.0000000E+00   0.0000000E+00   0.0000000E+00
   0.3000000E+01   0.1250000E+02  -0.8000000E+01   0.0000000E+00   0.0000000E+00   0.0000000E+00   0.0000000E+00
   0.3000000E+01   0.1179289E+02  -0.8292893E+01   0.0000000E+00   0.0000000E+00   0.0000000E+00   0.0000000E+00
   0.1000000E+01   0.1179289E+02  -0.8292893E+01   0.0000000E+00   0.0000000E+00   0.0000000E+00   0.0000000E+00
   0.3000000E+01   0.1150000E+02  -0.9000000E+01   0.0000000E+00   0.0000000E+00   0.0000000E+00   0.0000000E+00
   0.1000000E+01   0.1150000E+02  -0.9000000E+01   0.0000000E+00   0.0000000E+00   0.0000000E+00   0.0000000E+00
  -0.1000000E+01   0.1250000E+02  -0.1000000E+02   0.0000000E+00   0.0000000E+00   0.0000000E+00   0.0000000E+00
  -0.1000000E+01   0.1179289E+02  -0.9707107E+01   0.0000000E+00   0.0000000E+00   0.0000000E+00   0.0000000E+00
  -0.1000000E+01   0.1320711E+02  -0.9707107E+01   0.0000000E+00   0.0000000E+00   0.0000000E+00   0.0000000E+00
  -0.1000000E+01   0.1350000E+02  -0.9000000E+01   0.0000000E+00   0.0000000E+00   0.0000000E+00   0.0000000E+00
  -0.1000000E+01   0.1320711E+02  -0.8292893E+01   0.0000000E+00   0.0000000E+00   0.0000000E+00   0.0000000E+00
  -0.1000000E+01   0.1250000E+02  -0.8000000E+01   0.0000000E+00   0.0000000E+00   0.0000000E+00   0.0000000E+00
  -0.1000000E+01   0.1179289E+02  -0.8292893E+01   0.0000000E+00   0.0000000E+00   0.0000000E+00   0.0000000E+00
  -0.1000000E+01   0.1150000E+02  -0.9000000E+01   0.0000000E+00   0.0000000E+00   0.0000000E+00   0.0000000E+00
  -0.3000000E+01   0.1250000E+02  -0.1000000E+02   0.0000000E+00   0.0000000E+00   0.0000000E+00   0.0000000E+00
  -0.3000000E+01   0.1179289E+02  -0.9707107E+01   0.0000000E+00   0.0000000E+00   0.0000000E+00   0.0000000E+00
  -0.3000000E+01   0.1320711E+02  -0.9707107E+01   0.0000000E+00   0.0000000E+00   0.0000000E+00   0.0000000E+00
  -0.3000000E+01   0.1350000E+02  -0.9000000E+01   0.0000000E+00   0.0000000E+00   0.0000000E+00   0.0000000E+00
  -0.3000000E+01   0.1320711E+02  -0.8292893E+01   0.0000000E+00   0.0000000E+00   0.0000000E+00   0.0000000E+00
  -0.3000000E+01   0.1250000E+02  -0.8000000E+01   0.0000000E+00   0.0000000E+00   0.0000000E+00   0.0000000E+00
  -0.3000000E+01   0.1179289E+02  -0.8292893E+01   0.0000000E+00   0.0000000E+00   0.0000000E+00   0.0000000E+00
  -0.3000000E+01   0.1150000E+02  -0.9000000E+01   0.0000000E+00   0.0000000E+00   0.0000000E+00   0.0000000E+00
  -0.3000000E+01   0.1150000E+02  -0.1000000E+02   0.0000000E+00   0.0000000E+00   0.0000000E+00   0.0000000E+00
  -0.3000000E+01   0.1350000E+02  -0.1000000E+02   0.0000000E+00   0.0000000E+00   0.0000000E+00   0.0000000E+00
  -0.3000000E+01   0.1350000E+02  -0.8000000E+01   0.0000000E+00   0.0000000E+00   0.0000000E+00   0.0000000E+00
  -0.3000000E+01   0.1150000E+02  -0.8000000E+01   0.0000000E+00   0.0000000E+00   0.0000000E+00   0.0000000E+00
   0.3000000E+01   0.1150000E+02  -0.1000000E+02   0.0000000E+00   0.0000000E+00   0.0000000E+00   0.0000000E+00
   0.3000000E+01   0.1350000E+02  -0.1000000E+02   0.0000000E+00   0.0000000E+00   0.0000000E+00   0.0000000E+00
   0.3000000E+01   0.1350000E+02  -0.8000000E+01   0.0000000E+00   0.0000000E+00   0.0000000E+00   0.0000000E+00
   0.3000000E+01   0.1150000E+02  -0.8000000E+01   0.0000000E+00   0.0000000E+00   0.0000000E+00   0.0000000E+00
   0.1100000E+02   0.1179289E+02  -0.9707107E+01   0.0000000E+00   0.0000000E+00   0.0000000E+00   0.0000000E+00
   0.9000000E+01   0.1250000E+02  -0.1000000E+02   0.0000000E+00   0.0000000E+00   0.0000000E+00   0.0000000E+00
   0.9000000E+01   0.1179289E+02  -0.9707107E+01   0.0000000E+00   0.0000000E+00   0.0000000E+00   0.0000000E+00
   0.9000000E+01   0.1320711E+02  -0.9707107E+01   0.0000000E+00   0.0000000E+00   0.0000000E+00   0.0000000E+00
   0.1100000E+02   0.1320711E+02  -0.9707107E+01   0.0000000E+00   0.0000000E+00   0.0000000E+00   0.0000000E+00
   0.9000000E+01   0.1350000E+02  -0.9000000E+01   0.0000000E+00   0.0000000E+00   0.0000000E+00   0.0000000E+00
   0.1100000E+02   0.1350000E+02  -0.9000000E+01   0.0000000E+00   0.0000000E+00   0.0000000E+00   0.0000000E+00
   0.9000000E+01   0.1320711E+02  -0.8292893E+01   0.0000000E+00   0.0000000E+00   0.0000000E+00   0.0000000E+00
   0.1100000E+02   0.1320711E+02  -0.8292893E+01   0.0000000E+00   0.0000000E+00   0.0000000E+00   0.0000000E+00
   0.9000000E+01   0.1250000E+02  -0.8000000E+01   0.0000000E+00   0.0000000E+00   0.0000000E+00   0.0000000E+00
   0.1100000E+02   0.1179289E+02  -0.8292893E+01   0.0000000E+00   0.0000000E+00   0.0000000E+00   0.0000000E+00
   0.9000000E+01   0.1179289E+02  -0.8292893E+01   0.0000000E+00   0.0000000E+00   0.0000000E+00   0.0000000E+00
   0.1100000E+02   0.1150000E+02  -0.9000000E+01   0.0000000E+00   0.0000000E+00   0.0000000E+00   0.0000000E+00
   0.9000000E+01   0.1150000E+02  -0.9000000E+01   0.0000000E+00   0.0000000E+00   0.0000000E+00   0.0000000E+00
   0.7000000E+01   0.1250000E+02  -0.1000000E+02   0.0000000E+00   0.0000000E+00   0.0000000E+00   0.0000000E+00
   0.7000000E+01   0.1179289E+02  -0.9707107E+01   0.0000000E+00   0.0000000E+00   0.0000000E+00   0.0000000E+00
   0.7000000E+01   0.1320711E+02  -0.9707107E+01   0.0000000E+00   0.0000000E+00   0.0000000E+00   0.0000000E+00
   0.7000000E+01   0.1350000E+02  -0.9000000E+01   0.0000000E+00   0.0000000E+00   0.0000000E+00   0.0000000E+00
   0.7000000E+01   0.1320711E+02  -0.8292893E+01   0.0000000E+00   0.0000000E+00   0.0000000E+00   0.0000000E+00
   0.7000000E+01   0.1250000E+02  -0.8000000E+01   0.0000000E+00   0.0000000E+00   0.0000000E+00   0.0000000E+00
   0.7000000E+01   0.1179289E+02  -0.8292893E+01   0.0000000E+00   0.0000000E+00   0.0000000E+00   0.0000000E+00
   0.7000000E+01   0.1150000E+02  -0.9000000E+01   0.0000000E+00   0.0000000E+00   0.0000000E+00   0.0000000E+00
   0.5000000E+01   0.1250000E+02  -0.1000000E+02   0.0000000E+00   0.0000000E+00   0.0000000E+00   0.0000000E+00
   0.5000000E+01   0.1179289E+02  -0.9707107E+01   0.0000000E+00   0.0000000E+00   0.0000000E+00   0.0000000E+00
   0.5000000E+01   0.1320711E+02  -0.9707107E+01   0.0000000E+00   0.0000000E+00   0.0000000E+00   0.0000000E+00
   0.5000000E+01   0.1350000E+02  -0.9000000E+01   0.0000000E+00   0.0000000E+00   0.0000000E+00   0.0000000E+00
   0.5000000E+01   0.1320711E+02  -0.8292893E+01   0.0000000E+00   0.0000000E+00   0.0000000E+00   0.0000000E+00