VARIABLES="w (rad/s)"
"abs(F   1   1)" "angle(F   1   1)"
"abs(F   1   2)" "angle(F   1   2)"
"abs(F   1   3)" "angle(F   1   3)"
"abs(F   1   4)" "angle(F   1   4)"
"abs(F   1   5)" "angle(F   1   5)"
"abs(F   1   6)" "angle(F   1   6)"
"abs(F   2   1)" "angle(F   2   1)"
"abs(F   2   2)" "angle(F   2   2)"
"abs(F   2   3)" "angle(F   2   3)"
"abs(F   2   4)" "angle(F   2   4)"
"abs(F   2   5)" "angle(F   2   5)"
"abs(F   2   6)" "angle(F   2   6)"
"abs(F   3   1)" "angle(F   3   1)"
"abs(F   3   2)" "angle(F   3   2)"
"abs(F   3   3)" "angle(F   3   3)"
"abs(F   3   4)" "angle(F   3   4)"
"abs(F   3   5)" "angle(F   3   5)"
"abs(F   3   6)" "angle(F   3   6)"
Zone t="Diffraction force - beta =   0.000 deg",I=   300,F=POINT
  0.2000000E-01  0.3623490E+04 -0.1570647E+01  0.3218763E-03  0.1808769E+01  0.2324740E+03 -0.3140093E+01  0.9654710E-03 -0.1086606E+01  0.1349403E+05 -0.1570800E+01  0.1428224E-01  0.1572199E+01  0.7454187E+04 -0.1579216E+01  0.2862365E-04  0.1703546E+01  0.1276159E+03 -0.1839705E+01  0.8597701E-04 -0.1410662E+01  0.7446081E+04 -0.1580179E+01  0.1613944E-01 -0.1566245E+01  0.7449322E+04 -0.1562368E+01  0.4541620E-03 -0.1575217E+01  0.1256953E+03  0.1843921E+01  0.2471406E-02  0.1599687E+01  0.7447736E+04 -0.1561416E+01  0.1214335E-01  0.1578955E+01
  0.4000000E-01  0.7390363E+04 -0.1570512E+01  0.3348755E-03 -0.1399444E+01  0.9230792E+03 -0.3137453E+01  0.6907083E-02  0.1729135E+01  0.2747773E+05 -0.1570798E+01  0.3937104E-01  0.1583877E+01  0.1527487E+05 -0.1587518E+01  0.5020725E-03  0.1528936E+01  0.2791599E+03 -0.2067805E+01  0.1802420E-02 -0.1505935E+01  0.1560758E+05 -0.1589315E+01  0.8382130E-02 -0.1550551E+01  0.1526499E+05 -0.1554052E+01  0.4575732E-03 -0.1597829E+01  0.2674201E+03  0.2091843E+01  0.3976071E-02  0.1580900E+01  0.1561076E+05 -0.1552277E+01  0.6457551E-01  0.1587891E+01
  0.6000000E-01  0.1118944E+05 -0.1570382E+01  0.6375108E-03  0.1454977E+01  0.2062440E+04 -0.3136438E+01  0.5554283E-03 -0.2492597E+01  0.4158000E+05 -0.1570791E+01  0.2488491E-01 -0.1630002E+01  0.2319087E+05 -0.1596000E+01  0.1099234E-02 -0.1596501E+01  0.4769550E+03 -0.2235296E+01  0.1815026E-02  0.1191607E+01  0.2379198E+05 -0.1598667E+01  0.1557419E-01 -0.1531122E+01  0.2317589E+05 -0.1545554E+01  0.1133499E-02 -0.1540108E+01  0.4499284E+03  0.2283482E+01  0.5736365E-02  0.1617342E+01  0.2379650E+05 -0.1542918E+01  0.7233033E-01  0.1598859E+01
  0.8000000E-01  0.1506357E+05 -0.1570253E+01  0.2101023E-02  0.1517891E+01  0.3663266E+04 -0.3135882E+01  0.8441521E-02 -0.1201870E+01  0.5600639E+05 -0.1570777E+01  0.3952733E-02  0.9860057E+00  0.3122331E+05 -0.1604562E+01  0.8725162E-03 -0.1698066E+01  0.7327465E+03 -0.2354215E+01  0.2074806E-03 -0.1690590E+01  0.3200867E+05 -0.1608042E+01  0.6973008E-01 -0.1571973E+01  0.3120321E+05 -0.1536969E+01  0.1871128E-02 -0.1575320E+01  0.6864380E+03  0.2424337E+01  0.8361341E-02  0.1710976E+01  0.3201477E+05 -0.1533531E+01  0.3017657E-01  0.1557482E+01
  0.9999999E-01  0.1913962E+05 -0.1570128E+01  0.2755295E-02  0.1542757E+01  0.5706635E+04 -0.3135448E+01  0.2503424E-01  0.2816486E+00  0.7125891E+05 -0.1570755E+01  0.5455560E-01  0.1685160E+01  0.3973179E+05 -0.1613048E+01  0.1472348E-03 -0.2909575E+01  0.1039953E+04 -0.2451493E+01  0.5236882E-02  0.1351703E+01  0.4116679E+05 -0.1617110E+01  0.2976885E-01 -0.1533979E+01  0.3970664E+05 -0.1528454E+01  0.2818531E-02 -0.1532256E+01  0.9717701E+03  0.2542361E+01  0.1770608E-01  0.1660812E+01  0.4117471E+05 -0.1524445E+01  0.6457755E-01  0.1616784E+01
  0.1200000E+00  0.2319185E+05 -0.1569997E+01  0.7686426E-03  0.1938861E+01  0.8242336E+04 -0.3135101E+01  0.1950191E-01  0.1176487E+01  0.8604896E+05 -0.1570723E+01  0.5337953E-01  0.1693449E+01  0.4828350E+05 -0.1622129E+01  0.8661860E-03  0.1678490E+01  0.1415461E+04 -0.2518144E+01  0.7652315E-02  0.1507569E+01  0.5007232E+05 -0.1627054E+01  0.1211651E-01 -0.1826962E+01  0.4825330E+05 -0.1519335E+01  0.2075623E-02 -0.1535927E+01  0.1321502E+04  0.2626595E+01  0.2127265E-01  0.1608665E+01  0.5008215E+05 -0.1514473E+01  0.1758964E+00  0.1615487E+01
  0.1400000E+00  0.2756004E+05 -0.1569870E+01  0.3138942E-02  0.1525208E+01  0.1117692E+05 -0.3134685E+01  0.2917481E-01 -0.5726259E+00  0.1019838E+06 -0.1570676E+01  0.9899150E-01 -0.1618907E+01  0.5739396E+05 -0.1631309E+01  0.1632616E-02 -0.1667036E+01  0.1841935E+04 -0.2577269E+01  0.9937598E-02  0.1443489E+01  0.5982521E+05 -0.1636968E+01  0.1594122E+00 -0.1613132E+01  0.5735922E+05 -0.1510105E+01  0.3636880E-03 -0.1130605E+01  0.1719878E+04  0.2704308E+01  0.8337996E-02  0.1573084E+01  0.5983825E+05 -0.1504522E+01  0.8833498E-01  0.1640579E+01
  0.1600000E+00  0.3229966E+05 -0.1569741E+01  0.6794981E-03  0.1125171E+00  0.1457007E+05 -0.3134295E+01  0.4082844E-01  0.2924626E+01  0.1197073E+06 -0.1570611E+01  0.3227727E+00 -0.1560018E+01  0.6752226E+05 -0.1639754E+01  0.3682920E-02 -0.1695151E+01  0.2347135E+04 -0.2611478E+01  0.6697487E-02  0.1402839E+01  0.7122798E+05 -0.1644854E+01  0.2881522E+00 -0.1588138E+01  0.6748338E+05 -0.1501595E+01  0.1973801E-02  0.1405588E+01  0.2189437E+04  0.2755152E+01  0.7529801E-02 -0.2255091E+01  0.7124466E+05 -0.1496580E+01  0.3787431E-01 -0.1502681E+01
  0.1800000E+00  0.3692093E+05 -0.1569595E+01  0.6912611E-02  0.1581282E+01  0.1840241E+05 -0.3133830E+01  0.5347412E-01 -0.2058437E+01  0.1358870E+06 -0.1570515E+01  0.1266928E+00  0.1722164E+01  0.7736788E+05 -0.1650605E+01  0.8914956E-02 -0.1572053E+01  0.2907016E+04 -0.2642717E+01  0.4465485E-01  0.1570241E+01  0.8148370E+05 -0.1657314E+01  0.1049718E+00 -0.1509768E+01  0.7732562E+05 -0.1490651E+01  0.5111183E-02 -0.1522639E+01  0.2709183E+04  0.2805690E+01  0.4069187E-01  0.1635221E+01  0.8150545E+05 -0.1484042E+01  0.3116150E+00  0.1632254E+01
  0.2000000E+00  0.4217311E+05 -0.1569439E+01  0.7568409E-02  0.1460696E+01  0.2265827E+05 -0.3133377E+01  0.9772489E-01 -0.7235303E+00  0.1546962E+06 -0.1570381E+01  0.1374313E+00 -0.1468918E+01  0.8826288E+05 -0.1661014E+01  0.5221011E-03  0.1611907E+01  0.3531671E+04 -0.2668667E+01  0.3761727E-02 -0.2708335E+01  0.9301118E+05 -0.1668416E+01  0.6534060E-01  0.1608651E+01  0.8821935E+05 -0.1480117E+01  0.5086742E-02 -0.1439605E+01  0.3288865E+04  0.2852544E+01  0.4823745E-01  0.1695794E+01  0.9304095E+05 -0.1472828E+01  0.7884961E-01 -0.1895648E+01
  0.2200000E+00  0.4791855E+05 -0.1569265E+01  0.9167980E-03 -0.1249046E+01  0.2729155E+05 -0.3132678E+01  0.5142870E-01  0.3036964E+01  0.1754207E+06 -0.1570189E+01  0.7599845E-01 -0.1737001E+01  0.1005912E+06 -0.1671117E+01  0.1459740E-02  0.1511964E+01  0.4225126E+04 -0.2680255E+01  0.6824697E-02 -0.3001395E+01  0.1067416E+06 -0.1678075E+01  0.2347482E-01 -0.1652021E+00  0.1005502E+06 -0.1469839E+01  0.1064075E-02 -0.7126120E+00  0.3922284E+04  0.2888356E+01  0.1270919E-01  0.2020081E+01  0.1067842E+06 -0.1463009E+01  0.1637214E-01  0.1441552E+01
  0.2400000E+00  0.5379541E+05 -0.1569041E+01  0.1397763E-02  0.2383215E+01  0.3244036E+05 -0.3132320E+01  0.4317326E-01 -0.2477450E+01  0.1957733E+06 -0.1569912E+01  0.2484633E-01 -0.1447660E+01  0.1136960E+06 -0.1682988E+01  0.3082513E-02  0.1736454E+01  0.4994068E+04 -0.2683042E+01  0.1909675E-01 -0.1521436E+01  0.1217626E+06 -0.1690318E+01  0.1882946E+00  0.1626130E+01  0.1136626E+06 -0.1457721E+01  0.1226299E-02  0.1631493E+01  0.4617405E+04  0.2916025E+01  0.1698910E-01 -0.2031883E+01  0.1218240E+06 -0.1450541E+01  0.3747693E-01  0.1716634E+01
  0.2600000E+00  0.6035255E+05 -0.1568757E+01  0.2036348E-02  0.8251897E-01  0.3767349E+05 -0.3131655E+01  0.1904649E-01  0.1590025E+01  0.2182632E+06 -0.1569514E+01  0.8315416E-01 -0.1447170E+01  0.1277395E+06 -0.1695992E+01  0.7787006E-02  0.1542502E+01  0.5795891E+04 -0.2687320E+01  0.2056926E-01 -0.1743384E+01  0.1370263E+06 -0.1704305E+01  0.7935711E-01  0.1427156E+01  0.1277237E+06 -0.1444365E+01  0.1477310E-02  0.1191549E+01  0.5339023E+04  0.2952661E+01  0.8768288E-02  0.1999026E+01  0.1371187E+06 -0.1436229E+01  0.7616661E-01  0.1546287E+01
  0.2800000E+00  0.6762873E+05 -0.1568381E+01  0.6363962E-02 -0.1779713E+01  0.4367764E+05 -0.3131221E+01  0.9307010E-01  0.6345823E+00  0.2434914E+06 -0.1568952E+01  0.7358521E-01 -0.1053708E+01  0.1434161E+06 -0.1709366E+01  0.1387803E-02  0.2176906E+01  0.6660729E+04 -0.2685772E+01  0.7152971E-02 -0.9674103E+00  0.1546410E+06 -0.1717897E+01  0.1712366E+00  0.1496408E+01  0.1434343E+06 -0.1430498E+01  0.2123149E-02  0.1586743E+01  0.6112050E+04  0.2985909E+01  0.7047580E-02 -0.1130147E+01  0.1547838E+06 -0.1422178E+01  0.1546821E-01  0.2010247E+01
  0.3000000E+00  0.7598955E+05 -0.1567885E+01  0.9706473E-02  0.2457522E+01  0.4963660E+05 -0.3130831E+01  0.1512079E+00 -0.1776155E-01  0.2733767E+06 -0.1568183E+01  0.4189107E+00 -0.1503724E+01  0.1620240E+06 -0.1721617E+01  0.1916966E-02 -0.1066645E+01  0.7573270E+04 -0.2671454E+01  0.6807585E-02  0.1545577E+01  0.1771760E+06 -0.1728114E+01  0.2723293E-01 -0.1324781E+01  0.1621004E+06 -0.1417565E+01  0.3779884E-03 -0.5495062E+00  0.6902780E+04  0.3009563E+01  0.4789756E-02 -0.1539731E+01  0.1773971E+06 -0.1411318E+01  0.5953076E-01 -0.6313209E+00
  0.3200000E+00  0.8407634E+05 -0.1567170E+01  0.1065116E-01 -0.1318869E+01  0.5618366E+05 -0.3130497E+01  0.9505548E-01  0.4263087E+00  0.2996348E+06 -0.1567065E+01  0.1381655E+00 -0.1291526E+01  0.1803108E+06 -0.1738459E+01  0.1068451E-01 -0.1545712E+01  0.8512334E+04 -0.2651395E+01  0.3544139E-01  0.1546469E+01  0.1974739E+06 -0.1746179E+01  0.5962591E-01 -0.2810644E+01  0.1804874E+06 -0.1399768E+01  0.5241478E-02  0.1477138E+01  0.7698047E+04  0.3033484E+01  0.1170154E-01 -0.1200884E+01  0.1978197E+06 -0.1392361E+01  0.1616690E+00  0.1602320E+01
  0.3400000E+00  0.9321066E+05 -0.1566228E+01  0.3622862E-02 -0.1680523E+01  0.6307159E+05 -0.3130664E+01  0.7119745E-01 -0.2707633E+00  0.3301328E+06 -0.1565604E+01  0.1952827E+00  0.1230464E+01  0.2006559E+06 -0.1755966E+01  0.2541001E-02 -0.1435269E+01  0.9444826E+04 -0.2638069E+01  0.3640373E-02  0.1766959E+01  0.2210040E+06 -0.1764604E+01  0.3519073E+00  0.1259479E+01  0.2009914E+06 -0.1381010E+01  0.5623984E-02 -0.1115718E+01  0.8518222E+04  0.3063999E+01  0.1226603E-01  0.2677945E+01  0.2215431E+06 -0.1372765E+01  0.5509548E+00  0.1751276E+01
  0.3600000E+00  0.1033651E+06 -0.1564985E+01  0.1276996E-01  0.1307269E+01  0.6949119E+05 -0.3130892E+01  0.5614651E-01 -0.1275175E+01  0.3637959E+06 -0.1563680E+01  0.3219907E+00 -0.1607199E+01  0.2232995E+06 -0.1773739E+01  0.1206484E-01 -0.1809563E+01  0.1033321E+05 -0.2616520E+01  0.4258721E-01  0.1659591E+01  0.2478686E+06 -0.1782506E+01  0.1230986E+00  0.1910822E+01  0.2238815E+06 -0.1361593E+01  0.7616383E-02  0.1580250E+01  0.9285452E+04  0.3092093E+01  0.2922520E-01 -0.1912609E+01  0.2486997E+06 -0.1353319E+01  0.3459176E+00  0.1726978E+01
  0.3800000E+00  0.1140831E+06 -0.1563367E+01  0.3908752E-02  0.2807497E+01  0.7722462E+05 -0.3131670E+01  0.2824767E+00 -0.2703454E+00  0.4000617E+06 -0.1561215E+01  0.1153050E+00  0.2408620E+01  0.2482744E+06 -0.1790897E+01  0.3119632E-02 -0.1220040E+01  0.1121992E+05 -0.2588138E+01  0.1210923E-01 -0.2966811E+01  0.2782432E+06 -0.1797723E+01  0.3484311E+00 -0.1637992E+01  0.2492200E+06 -0.1342345E+01  0.7022539E-02 -0.1275997E+01  0.1004241E+05  0.3112896E+01  0.7771579E-02 -0.7468622E+00  0.2794939E+06 -0.1336115E+01  0.8570528E+00  0.1752464E+01
  0.4000000E+00  0.1252824E+06 -0.1561311E+01  0.9073169E-02  0.1199034E+01  0.8475388E+05 -0.3132885E+01  0.5386275E-01  0.7918083E+00  0.4369825E+06 -0.1558150E+01  0.9197883E-01 -0.2938471E+01  0.2751300E+06 -0.1809114E+01  0.1841886E-01 -0.1539311E+01  0.1208117E+05 -0.2554860E+01  0.7896338E-01  0.1646812E+01  0.3126309E+06 -0.1813661E+01  0.2365530E+00  0.9682350E+00  0.2765979E+06 -0.1321560E+01  0.1568445E-01 -0.1160907E+01  0.1077404E+05  0.3125617E+01  0.4471574E-01  0.2461229E+01  0.3144835E+06 -0.1317726E+01  0.5875368E+00  0.1938457E+01
  0.4200000E+00  0.1359931E+06 -0.1558692E+01  0.2550685E-01  0.1739092E+01  0.9176355E+05 -0.3134338E+01  0.7407767E-01 -0.9800515E+00  0.4689618E+06 -0.1554221E+01  0.1812964E+00  0.2702037E+01  0.3007602E+06 -0.1833313E+01  0.5433266E-02 -0.1955866E+01  0.1277724E+05 -0.2525260E+01  0.6387804E-01  0.1255542E+01  0.3417862E+06 -0.1841461E+01  0.1128876E+01  0.1319878E+01  0.3029998E+06 -0.1294221E+01  0.2198391E-02 -0.9029997E+00  0.1143563E+05 -0.3134001E+01  0.3948053E-01  0.1970448E+01  0.3445362E+06 -0.1287003E+01  0.1659649E+01  0.1839866E+01
  0.4400000E+00  0.1479009E+06 -0.1555533E+01  0.1719353E-01  0.1733027E+01  0.1003701E+06 -0.3136224E+01  0.3048577E+00 -0.4525449E+00  0.5062098E+06 -0.1549585E+01  0.4672512E+00 -0.1885277E+01  0.3291021E+06 -0.1856049E+01  0.1103094E-01 -0.1332528E+01  0.1338429E+05 -0.2496742E+01  0.2954770E-01  0.1187605E+01  0.3773553E+06 -0.1864496E+01  0.1221049E+01  0.1474026E+01  0.3323953E+06 -0.1267764E+01  0.4485715E-02 -0.1341030E+01  0.1210299E+05 -0.3111344E+01  0.6495048E-02  0.1393674E+01  0.3813299E+06 -0.1260457E+01  0.6954629E+00  0.1630185E+01
  0.4600000E+00  0.1600424E+06 -0.1551742E+01  0.1610105E-01  0.1142757E+01  0.1086590E+06 -0.3138486E+01  0.1772891E+00 -0.1592831E+01  0.5435020E+06 -0.1544100E+01  0.1778691E+00  0.2330957E+01  0.3592608E+06 -0.1879032E+01  0.1131469E-02  0.3114618E+01  0.1389255E+05 -0.2464637E+01  0.5378990E-01  0.1544979E+01  0.4163844E+06 -0.1887255E+01  0.1091596E+01  0.1269442E+01  0.3639638E+06 -0.1240500E+01  0.1260585E-01 -0.9692649E+00  0.1274524E+05 -0.3094908E+01  0.5587250E-01  0.2029589E+01  0.4220108E+06 -0.1233635E+01  0.6329086E+00  0.2299621E+01
  0.4800000E+00  0.1728998E+06 -0.1547370E+01  0.1892643E-01  0.3012238E+01  0.1160105E+06 -0.3141187E+01  0.6405610E-01 -0.5338435E-01  0.5850405E+06 -0.1537833E+01  0.5081167E+00  0.2161997E+01  0.3922427E+06 -0.1900594E+01  0.4036977E-02 -0.1273999E+01  0.1420812E+05 -0.2419816E+01  0.3269401E-01  0.7120686E+00  0.4599972E+06 -0.1905970E+01  0.5440553E+00 -0.1458655E+01  0.3987628E+06 -0.1214072E+01  0.2368850E-01 -0.1439068E+01  0.1321955E+05 -0.3085936E+01  0.1620882E+00  0.1889705E+01  0.4677381E+06 -0.1210193E+01  0.1184779E+01  0.1828032E+01
  0.5000000E+00  0.1856800E+06 -0.1542172E+01  0.1713338E-02  0.1499489E+01  0.1256118E+06  0.3139525E+01  0.9663313E-01  0.2023145E+01  0.6235580E+06 -0.1530493E+01  0.9479616E+00 -0.1276577E+01  0.4266587E+06 -0.1922165E+01  0.8012115E-02  0.1723147E+01  0.1436525E+05 -0.2371107E+01  0.6736615E-01 -0.1269479E+01  0.5076010E+06 -0.1922740E+01  0.1946563E+01 -0.1861840E+01  0.4354731E+06 -0.1186974E+01  0.3708137E-01  0.2050501E+01  0.1363583E+05 -0.3081073E+01  0.9685550E-01 -0.9116979E+00  0.5180246E+06 -0.1187939E+01  0.1519935E+01 -0.1162142E+01
  0.5200000E+00  0.1964685E+06 -0.1535811E+01  0.1313504E-01  0.9338008E+00  0.1350607E+06  0.3136879E+01  0.3290024E+00 -0.7313259E+00  0.6497951E+06 -0.1521393E+01  0.6708503E+00 -0.1741210E+01  0.4577590E+06 -0.1954382E+01  0.1252299E-01 -0.1051471E+01  0.1429211E+05 -0.2330653E+01  0.7802787E-01  0.1383286E+01  0.5458066E+06 -0.1961497E+01  0.2030777E+01 -0.1940146E+01  0.4697759E+06 -0.1148637E+01  0.1434361E-01 -0.5454698E-01  0.1412773E+05 -0.3067825E+01  0.3488331E-01 -0.2227946E+01  0.5600871E+06 -0.1143639E+01  0.1367420E+01 -0.1052766E+01
  0.5400000E+00  0.2086623E+06 -0.1528854E+01  0.4303382E-01  0.3533756E+00  0.1439503E+06  0.3133990E+01  0.3383793E+00  0.2212854E+01  0.6837374E+06 -0.1511632E+01  0.6391287E+00 -0.1020943E+01  0.4932772E+06 -0.1983302E+01  0.1182086E-01  0.1613064E+01  0.1393328E+05 -0.2283207E+01  0.7767216E-01 -0.1469056E+01  0.5950619E+06 -0.1990940E+01  0.1382369E+01 -0.2115556E+01  0.5091922E+06 -0.1113084E+01  0.1977648E-01  0.1530133E+01  0.1454638E+05 -0.3058582E+01  0.9531085E-01 -0.1097626E+01  0.6140781E+06 -0.1107902E+01  0.1174744E+01 -0.8281901E+00
  0.5600000E+00  0.2208571E+06 -0.1521121E+01  0.3241174E-01 -0.1129895E-01  0.1526652E+06  0.3131017E+01  0.5017560E+00  0.3406665E-01  0.7161262E+06 -0.1500845E+01  0.1140495E+01 -0.1532255E+01  0.5294389E+06 -0.2013673E+01  0.1034413E-01 -0.2015425E+01  0.1323405E+05 -0.2222671E+01  0.1603885E-01  0.8081884E+00  0.6457048E+06 -0.2021453E+01  0.1266623E+01 -0.2121293E+01  0.5500750E+06 -0.1075708E+01  0.6364974E-02  0.1129933E+01  0.1481944E+05 -0.3053531E+01  0.1645888E+00 -0.1013435E+01  0.6705111E+06 -0.1070699E+01  0.6530396E+00 -0.4037087E+00
  0.5800000E+00  0.2320523E+06 -0.1512407E+01  0.2154757E-01  0.1385622E+01  0.1642183E+06  0.3129993E+01  0.5942966E+00 -0.8773204E+00  0.7429163E+06 -0.1488612E+01  0.1247312E+01 -0.1753451E+01  0.5671822E+06 -0.2045572E+01  0.3286376E-01 -0.1650043E+01  0.1223538E+05 -0.2152309E+01  0.2403123E+00  0.1436833E+01  0.6990314E+06 -0.2052594E+01  0.2188354E+00  0.2963298E+01  0.5932699E+06 -0.1036522E+01  0.2379259E-01 -0.9928214E+00  0.1505038E+05 -0.3055347E+01  0.3331267E-01  0.1688788E+01  0.7305922E+06 -0.1032490E+01  0.2892857E+01 -0.9437712E+00
  0.6000000E+00  0.2428100E+06 -0.1503394E+01  0.5312023E-01  0.1932526E+01  0.1755442E+06  0.3129286E+01  0.1034424E+01 -0.6217859E+00  0.7707865E+06 -0.1475797E+01  0.1711908E+01  0.1732944E+01  0.6074692E+06 -0.2078241E+01  0.2298844E-01 -0.2447070E+00  0.1092790E+05 -0.2063285E+01  0.8879889E-01  0.2106589E+01  0.7576921E+06 -0.2082845E+01  0.1406461E+01 -0.1984834E+01  0.6395681E+06 -0.9963647E+00  0.9598459E-01 -0.9778776E+00  0.1520547E+05 -0.3064718E+01  0.3626339E+00  0.2189730E+01  0.7968383E+06 -0.9947675E+00  0.4226763E+01 -0.1142362E+01
  0.6199999E+00  0.2544874E+06 -0.1494451E+01  0.1568033E-01 -0.2469283E+01  0.1868255E+06  0.3129396E+01  0.1301551E+00 -0.4753920E+00  0.8032219E+06 -0.1463666E+01  0.3701674E+00  0.1269728E+00  0.6527971E+06 -0.2108048E+01  0.1352001E-01  0.6943952E+00  0.9275802E+04 -0.1944746E+01  0.6857074E-01  0.1542086E+01  0.8273358E+06 -0.2104432E+01  0.1096161E+01 -0.2307313E+01  0.6905248E+06 -0.9586886E+00  0.4226109E-01 -0.9582069E+00  0.1524350E+05 -0.3082036E+01  0.1404033E+00  0.2335290E+01  0.8739012E+06 -0.9646195E+00  0.4803495E+01 -0.1142629E+01
  0.6400000E+00  0.2629856E+06 -0.1483092E+01  0.4960642E-01  0.1023413E+01  0.1969550E+06  0.3129183E+01  0.5897564E+00 -0.2367903E+01  0.8150805E+06 -0.1448295E+01  0.1255372E+01 -0.1825586E+01  0.6959923E+06 -0.2149304E+01  0.1181370E-01 -0.1627011E+01  0.7199726E+04 -0.1773408E+01  0.9457744E-01  0.6292707E+00  0.8892376E+06 -0.2150198E+01  0.9070392E+00  0.1414918E+01  0.7414495E+06 -0.9092808E+00  0.2291290E-01 -0.1370168E+01  0.1522635E+05 -0.3091617E+01  0.1310816E+00  0.1501595E+01  0.9457144E+06 -0.9114076E+00  0.2016436E+01 -0.1097117E+01
  0.6600000E+00  0.2702428E+06 -0.1471387E+01  0.3187181E-01 -0.6166875E+00  0.2111858E+06  0.3134554E+01  0.5041997E+00 -0.2627251E+01  0.8207535E+06 -0.1431904E+01  0.8177882E+00 -0.1836629E+01  0.7428039E+06 -0.2192714E+01  0.4878179E-01 -0.2277650E+01  0.4924787E+04 -0.1439046E+01  0.2636638E+00  0.1013841E+01  0.9593161E+06 -0.2197310E+01  0.7146868E+00  0.1527097E+01  0.7956127E+06 -0.8574561E+00  0.1470089E-01 -0.2758219E+01  0.1523173E+05 -0.3115172E+01  0.3670246E-01  0.1554166E+01  0.1025584E+07 -0.8565012E+00  0.6029034E+00 -0.2854749E+00
  0.6799999E+00  0.2767482E+06 -0.1459860E+01  0.4912143E-01 -0.4474623E-01  0.2264338E+06 -0.3140161E+01  0.1061589E+01 -0.3079920E+01  0.8252308E+06 -0.1415514E+01  0.6753662E+00 -0.1754012E+01  0.7952928E+06 -0.2235869E+01  0.4052426E-01 -0.1848566E+01  0.3520835E+04 -0.6332281E+00  0.2093122E+00  0.1343287E+01  0.1038281E+07 -0.2239584E+01  0.1134672E+01 -0.1609911E+01  0.8536606E+06 -0.8048685E+00  0.1085247E-01  0.2959743E+01  0.1520118E+05  0.3126914E+01  0.3023877E-01 -0.8323363E+00  0.1112259E+07 -0.8048207E+00  0.1663038E+01 -0.9576772E+00
  0.7000000E+00  0.2828531E+06 -0.1450234E+01  0.2101950E-01  0.1377957E+01  0.2419272E+06 -0.3128972E+01  0.1023317E+01 -0.2936898E+01  0.8285438E+06 -0.1401357E+01  0.1206255E+01 -0.1435998E+01  0.8551801E+06 -0.2279047E+01  0.2202717E-01 -0.2694210E+01  0.5180439E+04  0.2733053E+00  0.1844784E+00  0.2418893E+00  0.1133403E+07 -0.2280340E+01  0.3465942E+00  0.2110461E+01  0.9156118E+06 -0.7502441E+00  0.5474057E-01  0.2926095E+01  0.1518802E+05  0.3067744E+01  0.3451079E+00 -0.1600314E+00  0.1211257E+07 -0.7524924E+00  0.9664512E+00 -0.1234962E+01
  0.7200000E+00  0.2875310E+06 -0.1440961E+01  0.1022318E+00 -0.9413855E+00  0.2572398E+06 -0.3115119E+01  0.1144923E+01  0.2499627E+01  0.8266895E+06 -0.1387923E+01  0.1491473E+01 -0.1102234E+00  0.9248314E+06 -0.2321108E+01  0.1005512E-01  0.2674891E+01  0.8984798E+04  0.6792035E+00  0.1015560E+00  0.5132570E+00  0.1240964E+07 -0.2318718E+01  0.4374535E+00  0.5328581E+00  0.9821277E+06 -0.6927544E+00  0.1222777E+00  0.2662535E+01  0.1516888E+05  0.2985240E+01  0.4593807E+00 -0.5085571E+00  0.1316245E+07 -0.6985151E+00  0.1123388E+01  0.1901729E+01
  0.7399999E+00  0.2891051E+06 -0.1430473E+01  0.1037707E+00  0.1380708E+00  0.2723796E+06 -0.3098656E+01  0.1302752E+01 -0.2925525E+01  0.8127738E+06 -0.1372292E+01  0.9244246E+00  0.3592534E-01  0.1000401E+07 -0.2366498E+01  0.3184726E-01 -0.1853143E+01  0.1382500E+05  0.8954816E+00  0.3224593E+00  0.1147325E+01  0.1356761E+07 -0.2365951E+01  0.2832308E+01  0.8902602E+00  0.1053742E+07 -0.6280757E+00  0.8181486E-01  0.2676381E+01  0.1537170E+05  0.2892567E+01  0.3609952E+00 -0.3761658E+00  0.1426912E+07 -0.6323897E+00  0.1021181E+01 -0.1870105E+00
  0.7600000E+00  0.2883500E+06 -0.1421021E+01  0.8418790E-01 -0.2691563E+01  0.2931783E+06 -0.3069257E+01  0.2379047E+00  0.1785903E+01  0.7878739E+06 -0.1356431E+01  0.1470017E+01  0.2093898E+01  0.1089154E+07 -0.2408962E+01  0.5494375E-01  0.1203209E+01  0.1949174E+05  0.1047373E+01  0.1305157E+00  0.8850062E-01  0.1495405E+07 -0.2409459E+01  0.4455530E+01  0.8195687E+00  0.1129995E+07 -0.5584353E+00  0.2972957E-01 -0.4212860E+00  0.1622228E+05  0.2780225E+01  0.6372021E-01 -0.3097996E+01  0.1549229E+07 -0.5621169E+00  0.9370956E+00  0.2818611E+01
  0.7800000E+00  0.2867588E+06 -0.1415404E+01  0.6474884E-01  0.2044562E+01  0.3158337E+06 -0.3030721E+01  0.6835045E+00 -0.2785498E+01  0.7600634E+06 -0.1345761E+01  0.2122417E+01  0.1801044E+01  0.1194617E+07 -0.2444487E+01  0.1651212E-01  0.3008025E+01  0.2588597E+05  0.1172597E+01  0.1671179E+00 -0.6066418E+00  0.1657543E+07 -0.2444320E+01  0.3902920E+01  0.5908233E+00  0.1210191E+07 -0.4835455E+00  0.4901047E-01 -0.1234474E+01  0.1788964E+05  0.2661941E+01  0.1565863E+00  0.1598865E+01  0.1677638E+07 -0.4884166E+00  0.3448061E+01  0.2761720E+01
  0.8000000E+00  0.2840455E+06 -0.1412609E+01  0.4268274E-01  0.1473404E+01  0.3380078E+06 -0.2985029E+01  0.4228324E+00  0.7527301E+00  0.7281648E+06 -0.1339650E+01  0.2090778E+01 -0.3648935E+00  0.1317890E+07 -0.2469961E+01  0.4666468E-01  0.2352238E+00  0.3274961E+05  0.1288705E+01  0.4022547E+00 -0.2560281E+01  0.1851259E+07 -0.2468828E+01  0.2351499E+01  0.5672592E+00  0.1293031E+07 -0.4023739E+00  0.1647240E-01  0.2189377E+01  0.2046056E+05  0.2565684E+01  0.7485621E-01 -0.7444515E+00  0.1816529E+07 -0.4093592E+00  0.4097532E+01 -0.4688519E+00
  0.8200000E+00  0.2790035E+06 -0.1408890E+01  0.7052284E-01  0.1924300E+01  0.3601908E+06 -0.2930103E+01  0.1419955E+01  0.6877471E-02  0.6878534E+06 -0.1331278E+01  0.4960938E+00 -0.1570796E+01  0.1457586E+07 -0.2487663E+01  0.6665844E-01 -0.1567305E+01  0.3998019E+05  0.1405625E+01  0.2239234E+00  0.2022376E+01  0.2075854E+07 -0.2487036E+01  0.3289513E+01  0.1806756E+00  0.1385001E+07 -0.3140746E+00  0.1416688E-01  0.2856635E+01  0.2387227E+05  0.2515017E+01  0.2112959E+00 -0.5702961E+00  0.1972736E+07 -0.3214212E+00  0.3854928E+01  0.2691644E+01
  0.8400000E+00  0.2720462E+06 -0.1408261E+01  0.1310753E+00  0.2648787E+01  0.3795613E+06 -0.2869437E+01  0.6596736E+00  0.2303832E+01  0.6443282E+06 -0.1324652E+01  0.1213455E+00  0.1635223E+01  0.1613725E+07 -0.2494088E+01  0.7821525E-01  0.1125024E+01  0.4792397E+05  0.1519289E+01  0.3729946E+00 -0.2151018E+01  0.2328151E+07 -0.2494473E+01  0.1521298E+01  0.5527869E+00  0.1481744E+07 -0.2180345E+00  0.1302334E-01  0.1373860E+01  0.2855491E+05  0.2487935E+01  0.1524380E+00 -0.2314564E+01  0.2137664E+07 -0.2249761E+00  0.1235303E+01  0.2683124E+01
  0.8600000E+00  0.2640475E+06 -0.1415950E+01  0.1263630E+00  0.5397568E+00  0.3993589E+06 -0.2792040E+01  0.5850319E+00 -0.1331486E+01  0.5949476E+06 -0.1328842E+01  0.2140939E+01 -0.2848158E+00  0.1784622E+07 -0.2482981E+01  0.8273379E-01 -0.1294232E+01  0.5631070E+05  0.1639217E+01  0.3288445E+00  0.1704084E+01  0.2607354E+07 -0.2483751E+01  0.4411479E+01  0.7991201E+00  0.1572376E+07 -0.1104559E+00  0.1307587E+00 -0.2807041E+00  0.3469198E+05  0.2496885E+01  0.2857311E+00  0.2610259E+01  0.2297830E+07 -0.1186199E+00  0.4272880E+01 -0.2969819E+00
  0.8800001E+00  0.2546164E+06 -0.1426268E+01  0.2054517E+00 -0.4912854E+00  0.4205187E+06 -0.2691857E+01  0.2348537E+01 -0.2701750E+01  0.5350303E+06 -0.1337004E+01  0.1077162E+01  0.9606645E+00  0.1961167E+07 -0.2454309E+01  0.1156688E+00 -0.1785759E+01  0.6421159E+05  0.1770609E+01  0.6208752E+00  0.1344034E+01  0.2906490E+07 -0.2455643E+01  0.2505402E+01  0.5785499E+00  0.1653995E+07  0.8355990E-02  0.1082118E+00 -0.2439497E+01  0.4145414E+05  0.2556049E+01  0.2905351E+00  0.1288716E+01  0.2452382E+07 -0.1708476E-02  0.1329191E+01 -0.2790294E+01
  0.9000000E+00  0.2437489E+06 -0.1436659E+01  0.1079378E+00  0.5792199E+00  0.4365381E+06 -0.2580967E+01  0.1064475E+01  0.1449400E+01  0.4687872E+06 -0.1343343E+01  0.6351351E+00  0.1781460E+01  0.2127063E+07 -0.2414724E+01  0.1140639E+00 -0.2112776E+01  0.7112324E+05  0.1908724E+01  0.5889069E+00  0.1017295E+01  0.3192298E+07 -0.2416877E+01  0.8404395E+00 -0.2951799E+01  0.1728323E+07  0.1324991E+00  0.1541676E+00  0.1502150E+00  0.4802945E+05  0.2655106E+01  0.4326238E+00  0.3074953E+01  0.2593798E+07  0.1219461E+00  0.1183555E+01  0.7505225E-01
  0.9200000E+00  0.2324037E+06 -0.1453293E+01  0.7104450E-01  0.2724066E+01  0.4440565E+06 -0.2463225E+01  0.3936128E+00  0.4880601E+00  0.4031765E+06 -0.1359095E+01  0.1688499E+01  0.1342090E+01  0.2272945E+07 -0.2362971E+01  0.5612980E-01 -0.3124737E+01  0.7698153E+05  0.2050862E+01  0.1652928E+00  0.5541658E-01  0.3459644E+07 -0.2366008E+01  0.1335811E+01  0.9798188E+00  0.1784798E+07  0.2622883E+00  0.1309134E+00  0.2789080E+00  0.5465214E+05  0.2779051E+01  0.5374831E+00 -0.2765304E+01  0.2715282E+07  0.2514821E+00  0.2603466E+01 -0.3113410E+01
  0.9399999E+00  0.2201778E+06 -0.1477849E+01  0.2068862E+00  0.1693834E+01  0.4423182E+06 -0.2335779E+01  0.1739275E+01 -0.1566304E+01  0.3338601E+06 -0.1390898E+01  0.3124547E+01 -0.1865067E+01  0.2383637E+07 -0.2298356E+01  0.1027816E+00 -0.1850564E+01  0.8122966E+05  0.2196210E+01  0.5209062E+00  0.1127062E+01  0.3680813E+07 -0.2302386E+01  0.3473617E+01 -0.2087119E+01  0.1808122E+07  0.3990942E+00  0.1524829E+00  0.6355355E+00  0.6088032E+05  0.2920695E+01  0.5391158E+00 -0.2568160E+01  0.2789847E+07  0.3868926E+00  0.5901601E+00  0.2484579E+01
  0.9600000E+00  0.2063256E+06 -0.1506665E+01  0.1306071E+00  0.7429233E+00  0.4300473E+06 -0.2210020E+01  0.8825624E+00  0.1637236E+01  0.2624344E+06 -0.1423300E+01  0.1591471E+01 -0.2039383E+01  0.2451963E+07 -0.2230967E+01  0.4531740E-01 -0.2525570E+01  0.8339141E+05  0.2340100E+01  0.4642798E-01  0.2136921E+01  0.3840930E+07 -0.2235824E+01  0.9525891E+01 -0.2021992E+01  0.1810306E+07  0.5347236E+00  0.3911640E-01 -0.1135065E+01  0.6579688E+05  0.3070863E+01  0.1130875E+00  0.1859772E+01  0.2831645E+07  0.5215807E+00  0.4002882E+01  0.1087557E+00
  0.9800000E+00  0.1916638E+06 -0.1542217E+01  0.4742616E-01 -0.1622297E+01  0.4094377E+06 -0.2091106E+01  0.8634933E+00 -0.2927340E+01  0.1891677E+06 -0.1465078E+01  0.7657147E+00  0.1302307E+01  0.2465503E+07 -0.2168255E+01  0.1666224E+00  0.1290962E+01  0.8362488E+05  0.2477936E+01  0.5662918E+00 -0.1775717E+01  0.3914178E+07 -0.2173696E+01  0.2132495E+01 -0.2116251E+01  0.1790612E+07  0.6606222E+00  0.1187516E+00 -0.2399093E+01  0.6914226E+05 -0.3058781E+01  0.7086782E+00  0.7783337E+00  0.2836386E+07  0.6473910E+00  0.1725026E+01  0.1031794E+01
  0.9999999E+00  0.1756732E+06 -0.1587329E+01  0.7339177E-01 -0.2010639E+01  0.3838388E+06 -0.1976955E+01  0.1084785E+01  0.2417343E+01  0.9697688E+05 -0.1582308E+01  0.3920585E+01 -0.1989425E+01  0.2401523E+07 -0.2114803E+01  0.5796056E-02  0.1655140E+01  0.8184072E+05  0.2603463E+01  0.6742860E-01 -0.2441005E+00  0.3835444E+07 -0.2120723E+01  0.4910492E+01 -0.1805949E+01  0.1727955E+07  0.7714571E+00  0.5822035E-01  0.2004668E+01  0.7044016E+05 -0.2906157E+01  0.2058256E+00 -0.7392513E+00  0.2752022E+07  0.7581561E+00  0.8520890E+01 -0.2556062E+01
  0.1020000E+01  0.1599107E+06 -0.1638206E+01  0.1867816E+00  0.1032843E+01  0.3561784E+06 -0.1857003E+01  0.5546600E+00  0.2445953E+01  0.1971633E+05  0.3115403E+01  0.3243140E+01  0.1023560E+01  0.2320244E+07 -0.2064203E+01  0.9786739E-01  0.8510423E+00  0.7863888E+05  0.2723391E+01  0.4960580E+00 -0.2513438E+01  0.3761671E+07 -0.2071018E+01  0.8794286E+01  0.1082372E+01  0.1666295E+07  0.8789111E+00  0.7153822E-01 -0.8323213E+00  0.7045129E+05 -0.2751635E+01  0.3841204E+00  0.2082926E+01  0.2691846E+07  0.8646734E+00  0.7560411E+00  0.1038693E+01
  0.1040000E+01  0.1438116E+06 -0.1699301E+01  0.1275527E+00  0.4431026E+00  0.3265541E+06 -0.1748023E+01  0.7587482E+00 -0.2756306E+01  0.1113422E+06  0.1862979E+01  0.2040917E+01 -0.1413199E+01  0.2213852E+07 -0.2026587E+01  0.6084694E-01 -0.1135919E+01  0.7447688E+05  0.2831876E+01  0.7336154E-01  0.1423840E+01  0.3640073E+07 -0.2033972E+01  0.2860793E+01 -0.3013543E+01  0.1610419E+07  0.9703500E+00  0.8437213E-01 -0.2060328E+01  0.6894973E+05 -0.2600757E+01  0.3051348E+00  0.8761861E+00  0.2636103E+07  0.9559999E+00  0.5670527E+01 -0.2046445E+01