VARIABLES="w (rad/s)"
"abs(F   1   1)" "angle(F   1   1)"
"abs(F   1   2)" "angle(F   1   2)"
"abs(F   1   3)" "angle(F   1   3)"
"abs(F   1   4)" "angle(F   1   4)"
"abs(F   1   5)" "angle(F   1   5)"
"abs(F   1   6)" "angle(F   1   6)"
"abs(F   2   1)" "angle(F   2   1)"
"abs(F   2   2)" "angle(F   2   2)"
"abs(F   2   3)" "angle(F   2   3)"
"abs(F   2   4)" "angle(F   2   4)"
"abs(F   2   5)" "angle(F   2   5)"
"abs(F   2   6)" "angle(F   2   6)"
"abs(F   3   1)" "angle(F   3   1)"
"abs(F   3   2)" "angle(F   3   2)"
"abs(F   3   3)" "angle(F   3   3)"
"abs(F   3   4)" "angle(F   3   4)"
"abs(F   3   5)" "angle(F   3   5)"
"abs(F   3   6)" "angle(F   3   6)"
Zone t="Diffraction force - beta =   0.000 deg",I=   300,F=POINT
  0.2000000E-01  0.1204038E+05 -0.2558494E+01  0.5070648E-01  0.6620374E-02  0.2554630E+06 -0.1365590E-05  0.1567006E+00 -0.3895027E-02  0.3595452E+05 -0.1477482E+01  0.2034642E+00  0.5943098E-01  0.9130873E+04 -0.1578734E+01  0.1957133E-02  0.3126608E+01  0.3819187E+06 -0.5974362E-02  0.1811673E+00 -0.3753279E-02  0.8573652E+04 -0.1579670E+01  0.2556701E+00 -0.7474332E-01  0.9126007E+04 -0.1562864E+01  0.3932531E-02 -0.1200192E+00  0.3819187E+06  0.5969143E-02  0.1049503E+00  0.2804930E-01  0.8575303E+04 -0.1561948E+01  0.1711076E+00  0.6003405E-01
  0.4000000E-01  0.1675984E+05 -0.2212938E+01  0.4486610E-01 -0.3133898E+01  0.2539642E+06 -0.1504518E-04  0.2121140E+00  0.3112886E+01  0.7227312E+05 -0.1524472E+01  0.4254777E-01  0.1959877E+01  0.1863999E+05 -0.1586545E+01  0.3064838E-02  0.2992301E+01  0.3813791E+06 -0.1199717E-01  0.1357149E-01 -0.2002000E+00  0.1787366E+05 -0.1588408E+01  0.1917082E-01 -0.1980862E+01  0.1863011E+05 -0.1555050E+01  0.2140404E-02 -0.2918928E+01  0.3813789E+06  0.1196189E-01  0.7769371E-01  0.5001609E-01  0.1787684E+05 -0.1553183E+01  0.8621172E-01  0.7782323E+00
  0.6000000E-01  0.2262224E+05 -0.2029448E+01  0.7219501E-01  0.3132398E+01  0.2514790E+06 -0.4227510E-04  0.1108933E+01  0.6879945E-03  0.1089863E+06 -0.1540143E+01  0.3219736E-01 -0.2130601E+01  0.2826832E+05 -0.1594554E+01  0.2201480E-02 -0.5066936E+00  0.3804847E+06 -0.1814200E-01  0.1746709E+00  0.3117698E+01  0.2721876E+05 -0.1597307E+01  0.3274732E-01 -0.6023006E+00  0.2825332E+05 -0.1547017E+01  0.1072494E-02 -0.1538362E+01  0.3804839E+06  0.1804988E-01  0.6740674E-01  0.3056255E+01  0.2722327E+05 -0.1544279E+01  0.7874950E+00  0.1053771E+00
  0.8000000E-01  0.2905119E+05 -0.1921658E+01  0.7315944E-01  0.3113745E+01  0.2479954E+06 -0.8435681E-04  0.3859321E+00 -0.1977003E-01  0.1463802E+06 -0.1548029E+01  0.6080627E-01  0.3014779E+01  0.3804980E+05 -0.1602649E+01  0.1356887E-02 -0.8787802E+00  0.3792362E+06 -0.2447911E-01  0.2836443E-01 -0.6972166E-01  0.3663026E+05 -0.1606248E+01  0.1326727E+00 -0.5762715E+00  0.3802970E+05 -0.1538897E+01  0.5367627E-02 -0.2717118E+01  0.3792343E+06  0.2430001E-01  0.6488638E-01  0.3055277E+01  0.3663636E+05 -0.1535325E+01  0.2613267E+00  0.9423303E-01
  0.9999999E-01  0.3596463E+05 -0.1850985E+01  0.4021074E-01  0.6854809E-01  0.2435345E+06 -0.1439872E-03  0.1792868E+00  0.3093232E+01  0.1850811E+06 -0.1552839E+01  0.1468124E+00  0.4141721E+00  0.4835805E+05 -0.1610718E+01  0.5883226E-02  0.3111681E+01  0.3776346E+06 -0.3103019E-01  0.4934141E-01  0.3054584E+01  0.4703029E+05 -0.1614979E+01  0.3985624E+00  0.5298260E-02  0.4833290E+05 -0.1530798E+01  0.8129980E-02 -0.2772283E+01  0.3776306E+06  0.3072859E-01  0.1423722E+00  0.2990578E+01  0.4703821E+05 -0.1526586E+01  0.1037054E+00  0.6891406E+00
  0.1200000E+00  0.4307836E+05 -0.1802615E+01  0.4129456E-01  0.3130877E+01  0.2380483E+06 -0.2247695E-03  0.2738103E+00  0.7116848E-01  0.2239433E+06 -0.1556003E+01  0.2061293E+00  0.2797274E+01  0.5877577E+05 -0.1619327E+01  0.8744723E-02  0.1056547E+00  0.3756821E+06 -0.3792038E-01  0.1845725E-01  0.5099943E+00  0.5723907E+05 -0.1624469E+01  0.7946142E-01 -0.2967865E+01  0.5874555E+05 -0.1522163E+01  0.9876043E-02 -0.2948903E+01  0.3756747E+06  0.3745359E-01  0.1076838E+00  0.1409082E+00  0.5724888E+05 -0.1517065E+01  0.7160766E+00  0.2834903E+01
  0.1400000E+00  0.5070483E+05 -0.1766094E+01  0.1154201E+00  0.2717090E-01  0.2316345E+06 -0.3333067E-03  0.5403112E+00 -0.2474141E-01  0.2647400E+06 -0.1558323E+01  0.1107541E+00 -0.1901957E+01  0.6983596E+05 -0.1628068E+01  0.2398557E-02 -0.2646022E+01  0.3733818E+06 -0.4515268E-01  0.2908375E+00 -0.1311662E-01  0.6837281E+05 -0.1633993E+01  0.3250533E+00 -0.2706970E+01  0.6980122E+05 -0.1513376E+01  0.6026736E-02 -0.6413139E-01  0.3733686E+06  0.4446576E-01  0.1851014E-01  0.1046998E+01  0.6838578E+05 -0.1507516E+01  0.9591314E-01  0.1863159E+01
  0.1600000E+00  0.5891048E+05 -0.1737461E+01  0.9112178E-01  0.3140086E+01  0.2242376E+06 -0.4741772E-03  0.2980439E+00  0.3092424E+01  0.3083006E+06 -0.1560114E+01  0.3309884E+00 -0.1750073E+01  0.8201796E+05 -0.1636307E+01  0.4877195E-02 -0.1039062E+01  0.3707378E+06 -0.5294250E-01  0.6482027E-01  0.2965845E+01  0.8125294E+05 -0.1641821E+01  0.3674830E+00 -0.8266609E+00  0.8197905E+05 -0.1505082E+01  0.2169283E-02  0.1876055E+01  0.3707159E+06  0.5196887E-01  0.1125081E+00 -0.1005821E+00  0.8126960E+05 -0.1499632E+01  0.2326342E+00 -0.1735306E+00
  0.1800000E+00  0.6723526E+05 -0.1715519E+01  0.8030897E-01  0.8693997E-01  0.2158823E+06 -0.6616942E-03  0.5438921E-01 -0.2219684E+01  0.3515053E+06 -0.1561444E+01  0.1504516E+00  0.9272958E+00  0.9404333E+05 -0.1646581E+01  0.8118059E-02 -0.1451599E+01  0.3677542E+06 -0.6128008E-01  0.3250360E+00  0.1514831E+00  0.9310234E+05 -0.1653641E+01  0.5658910E+00 -0.2115340E+00  0.9400093E+05 -0.1494741E+01  0.1060690E-01 -0.2684841E+01  0.3677190E+06  0.5992963E-01  0.5584431E-01  0.7113196E+00  0.9312409E+05 -0.1487739E+01  0.3880585E+00  0.1236441E+01
  0.2000000E+00  0.7645177E+05 -0.1696826E+01  0.5894660E-01  0.1300541E+00  0.2065929E+06 -0.9010339E-03  0.3861147E+00 -0.2961683E+01  0.3987618E+06 -0.1562546E+01  0.1370352E+00 -0.2057950E+01  0.1072705E+06 -0.1656607E+01  0.3906077E-02  0.1044425E+00  0.3644323E+06 -0.7030923E-01  0.1060345E+00 -0.1705604E+00  0.1063654E+06 -0.1664364E+01  0.2281868E+00  0.9680372E+00  0.1072268E+06 -0.1484612E+01  0.1205316E-01 -0.2731410E+01  0.3643774E+06  0.6847338E-01  0.1413687E+00  0.5099738E+00  0.1063950E+06 -0.1476928E+01  0.1016245E+00 -0.1891154E+01
  0.2200000E+00  0.8646490E+05 -0.1681025E+01  0.7881463E-01 -0.3132880E+01  0.1964252E+06 -0.1238598E-02  0.5974355E+00  0.2206879E-01  0.4496113E+06 -0.1563444E+01  0.1268529E+00 -0.2058546E+01  0.1221123E+06 -0.1666528E+01  0.3087328E-02  0.2650037E+01  0.3607972E+06 -0.8026631E-01  0.4197035E-01 -0.3089762E+01  0.1220012E+06 -0.1673950E+01  0.3616071E+00 -0.1390655E+00  0.1220710E+06 -0.1474539E+01  0.1463766E-01 -0.7261066E-01  0.3607126E+06  0.7778756E-01  0.1114994E+00  0.1204805E+00  0.1220436E+06 -0.1467194E+01  0.9087131E-01 -0.6833103E+00
  0.2400000E+00  0.9695842E+05 -0.1667906E+01  0.2250405E-01  0.3120572E+01  0.1852530E+06 -0.1623770E-02  0.1713637E+00 -0.1616939E+00  0.5020260E+06 -0.1564139E+01  0.1192299E+00 -0.2671993E+01  0.1379419E+06 -0.1678046E+01  0.5364690E-02  0.5768597E+00  0.3568512E+06 -0.9130537E-01  0.9147608E-01 -0.6643781E-01  0.1391262E+06 -0.1685893E+01  0.1361786E+00  0.2118918E+01  0.1379080E+06 -0.1462822E+01  0.1176210E-01  0.3017097E+01  0.3567236E+06  0.8802283E-01  0.1311545E+00 -0.2301889E+00  0.1391872E+06 -0.1455053E+01  0.4621072E+00  0.2987306E+01
  0.2600000E+00  0.1085213E+06 -0.1656361E+01  0.4810611E-02 -0.3100346E+01  0.1735246E+06 -0.2157509E-02  0.5935302E+00  0.2221399E-01  0.5587536E+06 -0.1564681E+01  0.8375979E-01 -0.1052374E+01  0.1549527E+06 -0.1690660E+01  0.1150558E-01  0.2426997E+01  0.3526208E+06 -0.1034173E+00  0.2751143E+00 -0.3076322E+01  0.1567248E+06 -0.1699442E+01  0.2227380E+00  0.2267546E+01  0.1549361E+06 -0.1449914E+01  0.8518971E-02  0.2950685E+01  0.3524292E+06  0.9907988E-01  0.1653103E+00 -0.3117476E+01  0.1568165E+06 -0.1441221E+01  0.3094507E+00  0.2591247E+01
  0.2800000E+00  0.1212301E+06 -0.1646163E+01  0.6123295E-01 -0.3035737E+01  0.1605722E+06 -0.2821155E-02  0.4372284E+00  0.1152820E+00  0.6205747E+06 -0.1565073E+01  0.8243605E-01 -0.8881925E+00  0.1738684E+06 -0.1703782E+01  0.3291961E-02  0.4290490E+00  0.3481159E+06 -0.1168998E+00  0.2086032E+00  0.3091685E+01  0.1769390E+06 -0.1712803E+01  0.3132947E+00  0.1517682E+01  0.1738851E+06 -0.1436384E+01  0.1017574E-01  0.2917608E+01  0.3478329E+06  0.1112531E+00  0.3318023E-01  0.2837912E+01  0.1770805E+06 -0.1427461E+01  0.9933956E-01 -0.1410251E+01
  0.3000000E+00  0.1354740E+06 -0.1636954E+01  0.3114904E-01  0.1942253E+00  0.1472348E+06 -0.3627976E-02  0.1535596E+00  0.3114560E+01  0.6894829E+06 -0.1565314E+01  0.3013682E+00 -0.1633215E+01  0.1960109E+06 -0.1716228E+01  0.5462988E-02 -0.4852746E+00  0.3434041E+06 -0.1320252E+00  0.1401502E+00  0.6864487E-01  0.2023704E+06 -0.1723438E+01  0.4302725E+00 -0.3099486E+01  0.1960852E+06 -0.1423369E+01  0.5564309E-02  0.3042537E+01  0.3429910E+06  0.1247710E+00  0.9195253E-01 -0.1223854E-01  0.2025895E+06 -0.1416260E+01  0.6626407E+00 -0.2870653E+01
  0.3200000E+00  0.1499018E+06 -0.1629202E+01  0.4638597E-01 -0.2914646E+01  0.1329043E+06 -0.4690502E-02  0.1212284E+01  0.3484735E-01  0.7571181E+06 -0.1565324E+01  0.1385515E+00 -0.1407965E+01  0.2181356E+06 -0.1732639E+01  0.1189282E-01 -0.1029538E+01  0.3385115E+06 -0.1488001E+00  0.1355228E+00  0.2945555E+01  0.2258757E+06 -0.1740985E+01  0.3593159E+00  0.6094485E-01  0.2183085E+06 -0.1406167E+01  0.2237651E-01  0.2950867E+01  0.3379133E+06  0.1395648E+00  0.2984799E-01 -0.1328546E+01  0.2262181E+06 -0.1397932E+01  0.1535034E+00  0.9935344E+00
  0.3400000E+00  0.1658126E+06 -0.1622074E+01  0.6104991E-01 -0.3082572E+01  0.1178536E+06 -0.5848567E-02  0.6271291E+00 -0.3104990E+01  0.8310996E+06 -0.1565145E+01  0.2981888E+00  0.7338499E+00  0.2426243E+06 -0.1749839E+01  0.2235301E-01 -0.1902332E+00  0.3334237E+06 -0.1669800E+00  0.5937316E-01  0.2797125E+01  0.2529458E+06 -0.1759039E+01  0.4309134E+00  0.2335902E+01  0.2429538E+06 -0.1387926E+01  0.1798815E-01 -0.3050650E+01  0.3325808E+06  0.1555353E+00  0.6373450E-02  0.2382437E+01  0.2534794E+06 -0.1378852E+01  0.5130299E+00  0.1782272E+01
  0.3600000E+00  0.1831366E+06 -0.1615505E+01  0.8935945E-01  0.3000420E+01  0.1029205E+06 -0.7224937E-02  0.1009679E+01 -0.4741060E-01  0.9099429E+06 -0.1564723E+01  0.2771413E+00 -0.1443600E+01  0.2697058E+06 -0.1767507E+01  0.1278480E-01 -0.2029506E+01  0.3282706E+06 -0.1868183E+00  0.1216190E+00  0.2724617E+01  0.2836916E+06 -0.1776825E+01  0.1909366E+00  0.5373934E+00  0.2702782E+06 -0.1368887E+01  0.1166792E-01  0.2729709E+01  0.3270988E+06  0.1728270E+00  0.1118574E+00  0.3047123E+01  0.2845141E+06 -0.1359710E+01  0.7608278E+00  0.5282208E+00
  0.3800000E+00  0.2013575E+06 -0.1609500E+01  0.6229143E-01  0.3128854E+01  0.8634899E+05 -0.8874094E-02  0.1915510E+00 -0.3717493E+00  0.9925682E+06 -0.1564024E+01  0.2257467E+00  0.2774341E+01  0.2993930E+06 -0.1784900E+01  0.2143705E-01 -0.3074634E+01  0.3230464E+06 -0.2083684E+00  0.2801292E-01  0.1490912E+01  0.3182931E+06 -0.1792443E+01  0.4617017E+00 -0.8272060E+00  0.3003246E+06 -0.1349744E+01  0.8480379E-02 -0.2171821E+01  0.3214484E+06  0.1916123E+00  0.1643790E+00 -0.2180094E+00  0.3195312E+06 -0.1342347E+01  0.7601304E+00  0.1480176E+01
  0.4000000E+00  0.2203231E+06 -0.1603914E+01  0.9082585E-01  0.3051085E+01  0.6968344E+05 -0.1059095E-01  0.4916874E+00  0.5414891E-01  0.1076444E+07 -0.1563025E+01  0.5523463E-01  0.2093780E+01  0.3312068E+06 -0.1803381E+01  0.1591753E-01 -0.1277090E+01  0.3177892E+06 -0.2315022E+00  0.1037595E+00  0.1973506E+01  0.3572462E+06 -0.1808862E+01  0.1479319E+00  0.1175843E+01  0.3326547E+06 -0.1329108E+01  0.1724972E-01 -0.1130689E+01  0.3156615E+06  0.2119251E+00  0.1077111E+00  0.3080994E+01  0.3590814E+06 -0.1323767E+01  0.7218373E+00  0.2241210E+01
  0.4200000E+00  0.2389925E+06 -0.1598727E+01  0.5189712E-01  0.5004730E+00  0.5326682E+05 -0.1249802E-01  0.4078690E+00 -0.3004689E+01  0.1155395E+07 -0.1561659E+01  0.3375363E+00 -0.2820757E+01  0.3620052E+06 -0.1826982E+01  0.5572719E-02 -0.8158972E+00  0.3125345E+06 -0.2555922E+00  0.2039760E+00  0.1022144E+00  0.3912822E+06 -0.1835694E+01  0.1640543E+01  0.1075792E+01  0.3642129E+06 -0.1302877E+01  0.3373443E-02 -0.2425515E+01  0.3097475E+06  0.2330727E+00  0.4872602E-01  0.1141467E+01  0.3940024E+06 -0.1294379E+01  0.1382581E+01  0.1890372E+01
  0.4400000E+00  0.2589805E+06 -0.1593548E+01  0.2122429E-01  0.2322636E+01  0.3501129E+05 -0.1539125E-01  0.4684272E+00 -0.3103780E+00  0.1239085E+07 -0.1559929E+01  0.5780336E+00 -0.2285653E+01  0.3957127E+06 -0.1849586E+01  0.1352784E-01 -0.1813860E+01  0.3072498E+06 -0.2807741E+00  0.6953043E-01  0.1091838E+01  0.4320712E+06 -0.1858562E+01  0.1401900E+01  0.1962615E+01  0.3989592E+06 -0.1277142E+01  0.7572309E-02 -0.1564846E+01  0.3036706E+06  0.2554363E+00  0.2836560E-01 -0.2447612E+01  0.4360018E+06 -0.1268425E+01  0.6148324E+00  0.9173748E+00
  0.4600000E+00  0.2792590E+06 -0.1588417E+01  0.1509039E+00  0.9397388E-01  0.1685830E+05 -0.2002558E-01  0.4460445E+00 -0.2737707E+01  0.1321782E+07 -0.1557801E+01  0.1459176E+00  0.2814551E+01  0.4314102E+06 -0.1872588E+01  0.6070363E-02 -0.2549582E+01  0.3019951E+06 -0.3070579E+00  0.1513260E+00  0.2985677E+01  0.4766527E+06 -0.1881342E+01  0.1246394E+01  0.1344169E+01  0.4360472E+06 -0.1250524E+01  0.1205396E-01 -0.1299737E+01  0.2974870E+06  0.2791958E+00  0.6627073E-01  0.1269134E+01  0.4822164E+06 -0.1242066E+01  0.4243566E+00  0.2657588E+01
  0.4800000E+00  0.3002485E+06 -0.1583229E+01  0.6522018E-01  0.1123013E-01  0.5429344E+03 -0.3054798E+01  0.3923819E+00 -0.3858607E-01  0.1407218E+07 -0.1555241E+01  0.5516706E+00  0.2403777E+01  0.4700896E+06 -0.1894602E+01  0.4669932E-02  0.2920885E+01  0.2969396E+06 -0.3342947E+00  0.4600877E-01 -0.2892270E+01  0.5261618E+06 -0.1900744E+01  0.5072803E+00 -0.1273143E+01  0.4765226E+06 -0.1224379E+01  0.2592646E-01 -0.1559078E+01  0.2913553E+06  0.3043229E+00  0.2451641E+00  0.2309506E+01  0.5338224E+06 -0.1218494E+01  0.1023133E+01  0.1626807E+01
  0.5000000E+00  0.3210964E+06 -0.1577880E+01  0.1453908E+00  0.3133197E+01  0.2033858E+05  0.3128822E+01  0.1089362E+00  0.2217883E+01  0.1487695E+07 -0.1552197E+01  0.9937603E+00 -0.1190746E+01  0.5103426E+06 -0.1916786E+01  0.8985018E-02  0.1931257E+01  0.2919600E+06 -0.3621936E+00  0.9154674E-01 -0.2437558E+00  0.5800032E+06 -0.1918574E+01  0.2082289E+01 -0.1750433E+01  0.5190452E+06 -0.1197491E+01  0.3620317E-01  0.2032795E+01  0.2851749E+06  0.3307796E+00  0.1252078E+00 -0.8539382E+00  0.5903307E+06 -0.1195821E+01  0.1436965E+01 -0.1313469E+01
  0.5200000E+00  0.3398291E+06 -0.1572311E+01  0.3362106E-01  0.2852570E+01  0.4010125E+05  0.3125716E+01  0.4955904E+00 -0.4418353E+00  0.1553537E+07 -0.1548544E+01  0.6955849E+00 -0.1921187E+01  0.5473774E+06 -0.1947989E+01  0.1284003E-01 -0.1619167E+01  0.2869030E+06 -0.3901543E+00  0.7129855E-01  0.6087492E+00  0.6247313E+06 -0.1955664E+01  0.2070641E+01 -0.2054307E+01  0.5592247E+06 -0.1161069E+01  0.2213564E-01  0.8789089E-02  0.2787839E+06  0.3581139E+00  0.4872888E-01  0.1197878E+01  0.6388491E+06 -0.1153842E+01  0.1269854E+01 -0.9753233E+00
  0.5400000E+00  0.3597885E+06 -0.1566429E+01  0.3213106E-01  0.2693661E+01  0.5938762E+05  0.3123164E+01  0.5316147E+00  0.2589516E+01  0.1624353E+07 -0.1544421E+01  0.7208328E+00 -0.9083272E+00  0.5889479E+06 -0.1976649E+01  0.1532587E-01  0.1862382E+01  0.2819453E+06 -0.4181573E+00  0.8059335E-01 -0.1262039E+01  0.6808748E+06 -0.1984814E+01  0.1197205E+01 -0.2002139E+01  0.6046312E+06 -0.1126709E+01  0.1693052E-01  0.1638724E+01  0.2723835E+06  0.3867625E+00  0.7371009E-01  0.8280731E-02  0.6996656E+06 -0.1119099E+01  0.9916661E+00 -0.7214838E+00
  0.5600000E+00  0.3795125E+06 -0.1560245E+01  0.1645517E-01  0.3074779E+01  0.7854470E+05  0.3121036E+01  0.9079577E+00  0.2312659E-01  0.1690517E+07 -0.1539801E+01  0.9913841E+00 -0.1589513E+01  0.6312551E+06 -0.2006689E+01  0.1155477E-01 -0.2277288E+01  0.2771199E+06 -0.4458547E+00  0.7432415E-01  0.1139082E+01  0.7387504E+06 -0.2015017E+01  0.9618910E+00 -0.1898985E+01  0.6515794E+06 -0.1090620E+01  0.5974738E-02  0.3910585E+00  0.2660595E+06  0.4166680E+00  0.2168173E+00 -0.1265904E+01  0.7632501E+06 -0.1082945E+01  0.3224072E+00 -0.1058067E+01
  0.5800000E+00  0.3979417E+06 -0.1553705E+01  0.1172850E+00  0.2951545E+01  0.1005466E+06  0.3122647E+01  0.4882432E+00 -0.1148307E+01  0.1747615E+07 -0.1534595E+01  0.1224371E+01 -0.1666656E+01  0.6752239E+06 -0.2038187E+01  0.2888962E-01 -0.1521392E+01  0.2722778E+06 -0.4730732E+00  0.3121460E+00  0.1257973E+01  0.7996608E+06 -0.2045900E+01  0.6138016E+00  0.2177828E+01  0.7008981E+06 -0.1052789E+01  0.1612609E-01 -0.1298849E+01  0.2597446E+06  0.4481009E+00  0.1804629E+00  0.1582678E+00  0.8308139E+06 -0.1045763E+01  0.3021535E+01 -0.8430679E+00
  0.6000000E+00  0.4155854E+06 -0.1547114E+01  0.5702198E-01  0.1075550E+01  0.1222934E+06  0.3123927E+01  0.5909572E+00 -0.1549311E+01  0.1802010E+07 -0.1528996E+01  0.1457632E+01  0.1728896E+01  0.7218064E+06 -0.2070518E+01  0.2431967E-01 -0.2934362E+00  0.2673990E+06 -0.4995715E+00  0.1443401E+00  0.1999357E+01  0.8662685E+06 -0.2076156E+01  0.1271807E+01 -0.1844016E+01  0.7533703E+06 -0.1013906E+01  0.9349936E-01 -0.1070557E+01  0.2534978E+06  0.4810692E+00  0.3102222E+00  0.2071297E+01  0.9048918E+06 -0.1008829E+01  0.4361196E+01 -0.1166891E+01
  0.6199999E+00  0.4337474E+06 -0.1540517E+01  0.1093077E+00 -0.9394591E-01  0.1439298E+06  0.3125761E+01  0.1731664E+00 -0.3511800E+00  0.1856928E+07 -0.1523391E+01  0.4282646E+00  0.2582522E+00  0.7735072E+06 -0.2100639E+01  0.1289585E-01  0.9655231E+00  0.2623905E+06 -0.5249281E+00  0.1263161E+00  0.3066628E+01  0.9442654E+06 -0.2099002E+01  0.1035784E+01 -0.2605737E+01  0.8105814E+06 -0.9768744E+00  0.4355231E-01 -0.8989828E+00  0.2473839E+06  0.5155106E+00  0.2959014E+00  0.2704492E+01  0.9902308E+06 -0.9783418E+00  0.4723161E+01 -0.1088022E+01
  0.6400000E+00  0.4482431E+06 -0.1532871E+01  0.4865528E-01  0.1170022E+01  0.1643107E+06  0.3126718E+01  0.5380177E+00 -0.2302262E+01  0.1886792E+07 -0.1516906E+01  0.1413318E+01 -0.1876814E+01  0.8230665E+06 -0.2140559E+01  0.1300648E-01 -0.1250344E+01  0.2570688E+06 -0.5485114E+00  0.8746944E-01  0.1330726E+01  0.1014762E+07 -0.2143080E+01  0.1025625E+01  0.1117222E+01  0.8676386E+06 -0.9296893E+00  0.2403940E-01 -0.1259032E+01  0.2412552E+06  0.5506132E+00  0.1518290E+00  0.2868676E+01  0.1070373E+07 -0.9275025E+00  0.2231217E+01 -0.1146832E+01
  0.6600000E+00  0.4609752E+06 -0.1525171E+01  0.7790057E-01 -0.2324365E+00  0.1886507E+06  0.3133713E+01  0.3375776E+00 -0.2281461E+01  0.1905794E+07 -0.1510112E+01  0.8018476E+00 -0.2030086E+01  0.8762552E+06 -0.2182518E+01  0.4670101E-01 -0.2257440E+01  0.2513927E+06 -0.5701954E+00  0.1500932E+00  0.1217214E+01  0.1093764E+07 -0.2188513E+01  0.3464951E+00  0.1369414E+01  0.9278848E+06 -0.8801722E+00  0.1360520E-01 -0.3024263E+01  0.2352141E+06  0.5877119E+00  0.1477652E+00  0.2103725E+01  0.1158826E+07 -0.8749420E+00  0.4375254E+00 -0.1588282E+00
  0.6799999E+00  0.4723841E+06 -0.1517656E+01  0.5999405E-01 -0.7739612E-01  0.2138276E+06 -0.3140077E+01  0.8637776E+00 -0.3011208E+01  0.1918737E+07 -0.1503254E+01  0.9363295E+00 -0.1451616E+01  0.9351378E+06 -0.2224505E+01  0.4701122E-01 -0.2126093E+01  0.2452547E+06 -0.5898263E+00  0.2682097E+00  0.5089000E+00  0.1182039E+07 -0.2229887E+01  0.1150297E+01 -0.1371185E+01  0.9919711E+06 -0.8297178E+00  0.2063136E-01  0.2803382E+01  0.2293869E+06  0.6268330E+00  0.6856899E-01 -0.6394064E+00  0.1254427E+07 -0.8250322E+00  0.2358578E+01 -0.1111860E+01
  0.7000000E+00  0.4827966E+06 -0.1511268E+01  0.3231385E-01  0.2468621E+01  0.2390357E+06 -0.3128819E+01  0.7695941E+00 -0.2883688E+01  0.1925617E+07 -0.1497246E+01  0.7029322E+00 -0.1360868E+01  0.1001426E+07 -0.2266773E+01  0.2200084E-01 -0.2696711E+01  0.2384805E+06 -0.6073772E+00  0.1712961E+00  0.2139926E+00  0.1286847E+07 -0.2270162E+01  0.7040855E+00  0.2395335E+01  0.1059870E+07 -0.7772262E+00  0.5740406E-01  0.2954669E+01  0.2237956E+06  0.6680034E+00  0.4073028E+00 -0.1986593E+00  0.1362629E+07 -0.7742665E+00  0.6834471E+00 -0.1114862E+01
  0.7200000E+00  0.4911163E+06 -0.1505212E+01  0.8166583E-01 -0.1575281E+01  0.2638052E+06 -0.3115778E+01  0.8321393E+00  0.2173447E+01  0.1922206E+07 -0.1491618E+01  0.1543776E+01 -0.1370662E+00  0.1077490E+07 -0.2308363E+01  0.2097876E-01  0.3018726E+01  0.2309128E+06 -0.6226647E+00  0.5914213E-01  0.1161635E+01  0.1404490E+07 -0.2308524E+01  0.5546241E+00  0.8685521E+00  0.1132189E+07 -0.7219543E+00  0.1221665E+00  0.2616456E+01  0.2185867E+06  0.7111626E+00  0.3666218E+00 -0.6115689E+00  0.1477062E+07 -0.7218618E+00  0.1083993E+01  0.1824663E+01
  0.7399999E+00  0.4955900E+06 -0.1498795E+01  0.5800647E-01  0.1969827E+00  0.2881041E+06 -0.3101001E+01  0.1526271E+01 -0.2952353E+01  0.1901255E+07 -0.1485541E+01  0.9239624E+00 -0.1849584E+00  0.1159423E+07 -0.2353029E+01  0.3429307E-01 -0.1891984E+01  0.2222874E+06 -0.6355378E+00  0.3104079E+00  0.1105258E+01  0.1530616E+07 -0.2354859E+01  0.2753548E+01  0.9060187E+00  0.1209278E+07 -0.6601055E+00  0.8138143E-01  0.2687106E+01  0.2135505E+06  0.7562057E+00  0.4065329E+00 -0.3913726E+00  0.1597012E+07 -0.6584479E+00  0.1265557E+01  0.1667397E+00
  0.7600000E+00  0.4969882E+06 -0.1493245E+01  0.5996238E-01 -0.6365793E+00  0.3177019E+06 -0.3074849E+01  0.2864975E+00  0.2037493E+01  0.1863908E+07 -0.1479932E+01  0.1234697E+01  0.2289032E+01  0.1254562E+07 -0.2395452E+01  0.6208533E-01  0.1213773E+01  0.2124038E+06 -0.6461602E+00  0.1253485E+00 -0.1068394E+00  0.1680000E+07 -0.2398144E+01  0.4824492E+01  0.7725068E+00  0.1290646E+07 -0.5935729E+00  0.3500946E-01 -0.4167529E+00  0.2087628E+06  0.8051975E+00  0.5998532E-01  0.1729170E+01  0.1728562E+07 -0.5910183E+00  0.1340787E+01  0.2718618E+01
  0.7800000E+00  0.4968197E+06 -0.1489957E+01  0.5967876E-01  0.1250340E+01  0.3487213E+06 -0.3041214E+01  0.6387287E+00 -0.2837249E+01  0.1818657E+07 -0.1476609E+01  0.2305604E+01  0.1747922E+01  0.1366498E+07 -0.2432070E+01  0.1150547E-01 -0.3078036E+01  0.2010911E+06 -0.6552548E+00  0.1793893E+00 -0.6734125E+00  0.1853397E+07 -0.2433904E+01  0.3683255E+01  0.5401970E+00  0.1375489E+07 -0.5220787E+00  0.4225630E-01 -0.1202896E+01  0.2043265E+06  0.8585463E+00  0.1416378E+00  0.1415035E+01  0.1866083E+07 -0.5202919E+00  0.2881613E+01  0.2808526E+01
  0.8000000E+00  0.4947431E+06 -0.1488347E+01  0.4983640E-01  0.9841522E+00  0.3787290E+06 -0.3001980E+01  0.4411296E+00  0.6913370E+00  0.1764262E+07 -0.1475330E+01  0.2256477E+01 -0.4961691E+00  0.1496364E+07 -0.2459962E+01  0.5108198E-01  0.4796120E+00  0.1881985E+06 -0.6650850E+00  0.4939629E+00 -0.2429039E+01  0.2058924E+07 -0.2460487E+01  0.2417982E+01  0.4971367E+00  0.1462332E+07 -0.4447023E+00  0.1360239E-01  0.2463086E+01  0.2000903E+06  0.9162800E+00  0.3959094E-01 -0.8126538E+00  0.2013730E+07 -0.4444415E+00  0.4087525E+01 -0.3691981E+00
  0.8200000E+00  0.4894377E+06 -0.1486444E+01  0.9374015E-01  0.2358037E+01  0.4080805E+06 -0.2955234E+01  0.1447266E+01  0.1349525E-02  0.1695749E+07 -0.1473667E+01  0.3562407E+00 -0.1504957E+01  0.1642684E+07 -0.2480885E+01  0.6443739E-01 -0.1719282E+01  0.1735735E+06 -0.6784242E+00  0.2601484E+00  0.1825278E+01  0.2295760E+07 -0.2481334E+01  0.2806448E+01  0.3257942E+00  0.1557439E+07 -0.3604407E+00  0.1487895E-01  0.2938163E+01  0.1956841E+06  0.9786069E+00  0.2577496E+00 -0.3694690E+00  0.2177867E+07 -0.3601239E+00  0.4243495E+01  0.2628155E+01
  0.8400000E+00  0.4813673E+06 -0.1486468E+01  0.1204593E+00  0.2600826E+01  0.4338408E+06 -0.2904192E+01  0.6927760E+00  0.2306336E+01  0.1618666E+07 -0.1472918E+01  0.2067363E+00 -0.1958320E+01  0.1805384E+07 -0.2491517E+01  0.8443462E-01  0.1159938E+01  0.1572659E+06 -0.6960161E+00  0.4592039E+00 -0.1998139E+01  0.2560652E+07 -0.2492239E+01  0.1005479E+01  0.1004615E+01  0.1656192E+07 -0.2687881E+00  0.8968763E-02  0.1722798E+01  0.1915857E+06  0.1048659E+01  0.1329849E+00 -0.2931685E+01  0.2349555E+07 -0.2677521E+00  0.1061254E+01  0.2859664E+01
  0.8600000E+00  0.4714757E+06 -0.1491164E+01  0.1421645E+00  0.4743998E+00  0.4589072E+06 -0.2838957E+01  0.5532622E+00 -0.1744651E+01  0.1531242E+07 -0.1476851E+01  0.2047606E+01 -0.2671120E-01  0.1982501E+07 -0.2485998E+01  0.7966118E-01 -0.1258404E+01  0.1392062E+06 -0.7258548E+00  0.3043519E+00  0.1647076E+01  0.2852476E+07 -0.2486282E+01  0.4283972E+01  0.8500255E+00  0.1747124E+07 -0.1665821E+00  0.1351869E+00 -0.3156114E+00  0.1874685E+06  0.1128508E+01  0.3353161E+00  0.2448999E+01  0.2514720E+07 -0.1662222E+00  0.4107071E+01 -0.3011337E+00
  0.8800001E+00  0.4592092E+06 -0.1497322E+01  0.2162916E+00 -0.4646572E+00  0.4836915E+06 -0.2754012E+01  0.2257086E+01 -0.2670979E+01  0.1428132E+07 -0.1483189E+01  0.1587322E+01  0.1144576E+01  0.2164324E+07 -0.2464029E+01  0.1033479E+00 -0.1846074E+01  0.1203384E+06 -0.7853716E+00  0.6837526E+00  0.1384132E+01  0.3163473E+07 -0.2463946E+01  0.2536066E+01  0.7652072E+00  0.1826910E+07 -0.5407622E-01  0.1120028E+00 -0.2400378E+01  0.1822746E+06  0.1216182E+01  0.2593966E+00  0.1217864E+01  0.2671813E+07 -0.5488564E-01  0.1561614E+01 -0.2692408E+01
  0.9000000E+00  0.4444866E+06 -0.1503498E+01  0.9833992E-01  0.6444941E+00  0.5015242E+06 -0.2660421E+01  0.1058466E+01  0.1388962E+01  0.1313071E+07 -0.1489500E+01  0.1190176E+01  0.1676017E+01  0.2333926E+07 -0.2431577E+01  0.1200521E+00 -0.2130312E+01  0.1025721E+06 -0.8933914E+00  0.6245741E+00  0.1084771E+01  0.3459518E+07 -0.2431395E+01  0.1044888E+01 -0.2611098E+01  0.1897472E+07  0.6353503E-01  0.1536469E+00  0.1258609E+00  0.1754586E+06  0.1308997E+01  0.4155213E+00  0.3094571E+01  0.2813146E+07  0.6268169E-01  0.1319921E+01  0.1390800E+00
  0.9200000E+00  0.4283351E+06 -0.1512892E+01  0.6009034E-01  0.2714293E+01  0.5089001E+06 -0.2562142E+01  0.3131965E+00  0.4831709E+00  0.1193762E+07 -0.1499069E+01  0.2239985E+01  0.1399054E+01  0.2481153E+07 -0.2387590E+01  0.5584475E-01 -0.3054594E+01  0.8823805E+05 -0.1067811E+01  0.1212185E+00 -0.5195208E+00  0.3734322E+07 -0.2387356E+01  0.1206103E+01  0.1103924E+01  0.1947995E+07  0.1861691E+00  0.1295058E+00  0.2820220E+00  0.1671648E+06  0.1408642E+01  0.5755417E+00 -0.2853854E+01  0.2931525E+07  0.1855645E+00  0.2763984E+01 -0.3018461E+01
  0.9399999E+00  0.4103183E+06 -0.1526366E+01  0.2091356E+00  0.1704274E+01  0.5047388E+06 -0.2457229E+01  0.1689797E+01 -0.1649474E+01  0.1066013E+07 -0.1514022E+01  0.3323763E+01 -0.1851840E+01  0.2589860E+07 -0.2331638E+01  0.9834516E-01 -0.1837075E+01  0.8064395E+05 -0.1307725E+01  0.6153836E+00  0.1201856E+01  0.3958688E+07 -0.2331422E+01  0.3356340E+01 -0.2133598E+01  0.1962794E+07  0.3143996E+00  0.1519677E+00  0.6622584E+00  0.1573281E+06  0.1512766E+01  0.5419090E+00 -0.2654974E+01  0.2999510E+07  0.3131053E+00  0.1176423E+01  0.1731714E+01
  0.9600000E+00  0.3895909E+06 -0.1541909E+01  0.1539891E+00  0.6503186E+00  0.4883162E+06 -0.2356638E+01  0.9097586E+00  0.1743401E+01  0.9305341E+06 -0.1528616E+01  0.1764001E+01 -0.1995316E+01  0.2652865E+07 -0.2273248E+01  0.4998794E-01 -0.2495649E+01  0.8153996E+05 -0.1556026E+01  0.1153616E+00  0.1831944E+01  0.4117430E+07 -0.2272948E+01  0.9722500E+01 -0.2028667E+01  0.1954975E+07  0.4410093E+00  0.4105826E-01 -0.1208372E+01  0.1462299E+06  0.1614700E+01  0.5208846E-01  0.1683524E+01  0.3032257E+07  0.4393691E+00  0.4194139E+01  0.8378200E-01
  0.9800000E+00  0.3669502E+06 -0.1560599E+01  0.5311729E-01 -0.1061912E+01  0.4624120E+06 -0.2265466E+01  0.1137204E+01 -0.3007225E+01  0.7880071E+06 -0.1544712E+01  0.3984567E+00  0.9174914E+00  0.2658404E+07 -0.2219812E+01  0.1776153E+00  0.1297122E+01  0.8863509E+05 -0.1748775E+01  0.6503083E+00 -0.1722675E+01  0.4185333E+07 -0.2219303E+01  0.2121732E+01 -0.2019264E+01  0.1925554E+07  0.5578010E+00  0.1180046E+00 -0.2368996E+01  0.1343398E+06  0.1710616E+01  0.7480876E+00  0.8352644E+00  0.3027664E+07  0.5564281E+00  0.1693219E+01  0.9315364E+00
  0.9999999E+00  0.3418307E+06 -0.1583699E+01  0.9016825E-01 -0.2390664E+01  0.4305729E+06 -0.2182038E+01  0.1251734E+01  0.2514632E+01  0.6215573E+06 -0.1571766E+01  0.3425327E+01 -0.2062497E+01  0.2584775E+07 -0.2176606E+01  0.8840703E-02  0.1515537E+01  0.9804979E+05 -0.1869076E+01  0.9355201E-01  0.3219568E+00  0.4098552E+07 -0.2176183E+01  0.4799619E+01 -0.1727019E+01  0.1855171E+07  0.6581669E+00  0.5262863E-01  0.2044039E+01  0.1222618E+06  0.1793783E+01  0.3054023E+00 -0.1035586E+01  0.2936399E+07  0.6564189E+00  0.8360197E+01 -0.2567660E+01
  0.1020000E+01  0.3157469E+06 -0.1608989E+01  0.1802189E+00  0.1134415E+01  0.3951322E+06 -0.2096945E+01  0.1034023E+01  0.2758280E+01  0.4451799E+06 -0.1614098E+01  0.3240055E+01  0.1015903E+01  0.2491651E+07 -0.2136929E+01  0.9767142E-01  0.8686770E+00  0.1075169E+06 -0.1939907E+01  0.5749372E+00 -0.2322701E+01  0.4013115E+07 -0.2136623E+01  0.8790915E+01  0.1103274E+01  0.1785781E+07  0.7549490E+00  0.6837523E-01 -0.7786127E+00  0.1102059E+06  0.1866268E+01  0.4124004E+00  0.2025575E+01  0.2869084E+07  0.7526830E+00  0.9447971E+00  0.1155281E+01
  0.1040000E+01  0.2881075E+06 -0.1638534E+01  0.1410854E+00  0.3830771E+00  0.3578752E+06 -0.2025963E+01  0.8282838E+00 -0.2810148E+01  0.2573429E+06 -0.1694312E+01  0.2524782E+01 -0.1485599E+01  0.2373351E+07 -0.2110715E+01  0.6234844E-01 -0.1163928E+01  0.1152382E+06 -0.1980374E+01  0.9502617E-01  0.1427719E+01  0.3879082E+07 -0.2110342E+01  0.3057052E+01 -0.3075230E+01  0.1725018E+07  0.8368024E+00  0.8352053E-01 -0.2069093E+01  0.9895613E+05  0.1922243E+01  0.3139966E+00  0.8959946E+00  0.2809836E+07  0.8344738E+00  0.5070155E+01 -0.2082210E+01