VARIABLES="w (rad/s)"
"abs(F   1   1)" "angle(F   1   1)"
"abs(F   1   2)" "angle(F   1   2)"
"abs(F   1   3)" "angle(F   1   3)"
"abs(F   1   4)" "angle(F   1   4)"
"abs(F   1   5)" "angle(F   1   5)"
"abs(F   1   6)" "angle(F   1   6)"
"abs(F   2   7)" "angle(F   2   7)"
"abs(F   2   8)" "angle(F   2   8)"
"abs(F   2   9)" "angle(F   2   9)"
"abs(F   2  10)" "angle(F   2  10)"
"abs(F   2  11)" "angle(F   2  11)"
"abs(F   2  12)" "angle(F   2  12)"
"abs(F   3  13)" "angle(F   3  13)"
"abs(F   3  14)" "angle(F   3  14)"
"abs(F   3  15)" "angle(F   3  15)"
"abs(F   3  16)" "angle(F   3  16)"
"abs(F   3  17)" "angle(F   3  17)"
"abs(F   3  18)" "angle(F   3  18)"
Zone t="FKforce - beta =   0.000",I=   300,F=POINT
  0.2000000E-01  0.1049127E+05 -0.2850986E+01  0.5078125E-01  0.4507211E-03  0.2556955E+06 -0.9697289E-09  0.1562502E+00  0.1562499E-02  0.2255428E+05 -0.1421702E+01  0.2031369E+00 -0.1081689E-01  0.1676690E+04 -0.1576590E+01  0.1953125E-02  0.3141104E+01  0.3819519E+06 -0.5651730E-02  0.1811533E+00 -0.3285029E-02  0.1127578E+04 -0.1576308E+01  0.2548999E+00 -0.1158353E-01  0.1676690E+04 -0.1565069E+01  0.3906286E-02 -0.4272435E-02  0.3819519E+06  0.5651730E-02  0.1049815E+00  0.4505783E-02  0.1127575E+04 -0.1565465E+01  0.1709087E+00 -0.1098170E-01
  0.4000000E-01  0.1171204E+05 -0.2600638E+01  0.4492188E-01 -0.3141253E+01  0.2548873E+06  0.8081754E-09  0.2109388E+00 -0.3138120E+01  0.4484293E+05 -0.1496091E+01  0.1562500E-01  0.3141593E+01  0.3365165E+04 -0.1582128E+01  0.3052101E-02 -0.3126594E+01  0.3815093E+06 -0.1134983E-01  0.1321430E-01 -0.6818119E-01  0.2266128E+04 -0.1582158E+01  0.1207040E-01 -0.2274761E+01  0.3365163E+04 -0.1559575E+01  0.2075251E-02 -0.3134240E+01  0.3815093E+06  0.1134982E-01  0.7763677E-01 -0.1179245E-02  0.2266128E+04 -0.1559421E+01  0.6263067E-01 -0.6460723E-01
  0.6000000E-01  0.1353232E+05 -0.2404579E+01  0.7226563E-01  0.3141170E+01  0.2535414E+06  0.1504566E-09  0.1109376E+01  0.9903166E-03  0.6743786E+05 -0.1521248E+01  0.1581459E-01 -0.2986596E+01  0.5077583E+04 -0.1587948E+01  0.1953363E-02  0.1562373E-01  0.3807721E+06 -0.1714207E-01  0.1753106E+00  0.3127405E+01  0.3426950E+04 -0.1587865E+01  0.2653626E-01 -0.1129432E+00  0.5077569E+04 -0.1553697E+01  0.6103516E-04  0.1570796E+01  0.3807721E+06  0.1714206E-01  0.6689453E-01  0.3141365E+01  0.3426948E+04 -0.1553731E+01  0.7852268E+00  0.1340871E-01
  0.8000000E-01  0.1578412E+05 -0.2256376E+01  0.7324221E-01 -0.3140759E+01  0.2516586E+06 -0.8185440E-09  0.3828126E+00  0.6377550E-03  0.9039730E+05 -0.1533936E+01  0.6265430E-01  0.3071396E+01  0.6826814E+04 -0.1593902E+01  0.9928844E-03 -0.1815717E+00  0.3797408E+06 -0.2307906E-01  0.2837557E-01 -0.6241881E-01  0.4621996E+04 -0.1593823E+01  0.1113576E+00 -0.2302225E-01  0.6826814E+04 -0.1547707E+01  0.4894602E-02 -0.3072173E+01  0.3797408E+06  0.2307906E-01  0.6353334E-01 -0.3099310E+01  0.4622002E+04 -0.1547749E+01  0.2598256E+00 -0.2149575E-01
  0.9999999E-01  0.1835817E+05 -0.2144143E+01  0.4003906E-01  0.0000000E+00  0.2492410E+06 -0.2632504E-08  0.2031322E+00  0.3133179E+01  0.1138408E+06 -0.1541625E+01  0.1407097E+00  0.3470828E-01  0.8626867E+04 -0.1599989E+01  0.5741140E-02  0.3105040E+01  0.3784163E+06 -0.2921575E-01  0.5029972E-01 -0.3125211E+01  0.5864253E+04 -0.1600019E+01  0.3987359E+00  0.7998867E-01  0.8626874E+04 -0.1541585E+01  0.7691339E-02 -0.3126217E+01  0.3784163E+06  0.2921575E-01  0.1392116E+00  0.3114406E+01  0.5864257E+04 -0.1541618E+01  0.8302020E-01  0.1727769E-01
  0.1200000E+00  0.2119647E+05 -0.2057595E+01  0.4101655E-01 -0.3134896E+01  0.2462905E+06 -0.2664041E-08  0.2656291E+00  0.5514650E-02  0.1379095E+06 -0.1546818E+01  0.1882335E+00  0.3053281E+01  0.1049333E+05 -0.1606434E+01  0.8789275E-02  0.6944333E-02  0.3768001E+06 -0.3561313E-01  0.1568523E-01  0.8766536E-01  0.7168081E+04 -0.1606413E+01  0.7522228E-01 -0.3114813E+01  0.1049333E+05 -0.1535170E+01  0.9767341E-02  0.3122845E+01  0.3768002E+06  0.3561312E-01  0.1075969E+00 -0.5704033E-01  0.7168072E+04 -0.1535177E+01  0.6760169E+00  0.3081697E+01
  0.1400000E+00  0.2427581E+05 -0.1989286E+01  0.1152344E+00  0.0000000E+00  0.2428111E+06 -0.3142112E-09  0.5156308E+00  0.4734813E-02  0.1627689E+06 -0.1550584E+01  0.3179457E-01 -0.2956245E+01  0.1244369E+05 -0.1613118E+01  0.2012313E-02  0.2898453E+01  0.3748936E+06 -0.4234016E-01  0.2898734E+00 -0.4718249E-01  0.8549719E+04 -0.1613177E+01  0.2889555E+00  0.3063995E+01  0.1244372E+05 -0.1528455E+01  0.5859654E-02 -0.9765315E-02  0.3748936E+06  0.4234016E-01  0.1205039E-01  0.6921443E+00  0.8549684E+04 -0.1528470E+01  0.2180459E-01  0.2970001E+01
  0.1600000E+00  0.2759594E+05 -0.1934115E+01  0.9179690E-01  0.3140928E+01  0.2388073E+06 -0.7539708E-08  0.2578791E+00  0.3118869E+01  0.1886041E+06 -0.1553452E+01  0.6256863E-01 -0.3094752E+01  0.1449797E+05 -0.1620253E+01  0.2980741E-02 -0.1853479E+00  0.3726994E+06 -0.4947514E-01  0.6511345E-01  0.3068883E+01  0.1002761E+05 -0.1620276E+01  0.2545267E+00  0.6983816E-01  0.1449799E+05 -0.1521315E+01  0.9841623E-03  0.3017238E+01  0.3726994E+06  0.4947513E-01  0.1168270E+00 -0.4677548E-01  0.1002763E+05 -0.1521314E+01  0.2265750E+00 -0.1050608E-01
  0.1800000E+00  0.3117249E+05 -0.1888602E+01  0.8007815E-01  0.7621950E-03  0.2342841E+06  0.3256471E-08  0.8734641E-02  0.2677945E+01  0.2156274E+06 -0.1555727E+01  0.1094839E+00 -0.4461323E-01  0.1667898E+05 -0.1627912E+01  0.1297625E-02  0.7188300E+00  0.3702202E+06 -0.5710808E-01  0.3213191E+00  0.1367696E-01  0.1162304E+05 -0.1627889E+01  0.5470551E+00 -0.2566401E-01  0.1667895E+05 -0.1513703E+01  0.9774966E-02  0.3097871E+01  0.3702202E+06  0.5710807E-01  0.4511320E-01 -0.9212975E-01  0.1162309E+05 -0.1513663E+01  0.1566607E+00  0.3624186E+00
  0.2000000E+00  0.3503250E+05 -0.1850366E+01  0.5761732E-01  0.2118641E-02  0.2292503E+06  0.6655952E-08  0.4531463E+00 -0.3131895E+01  0.2440733E+06 -0.1557581E+01  0.7967218E-01  0.2944197E+01  0.1901250E+05 -0.1636146E+01  0.3907926E-02 -0.2928850E-01  0.3674601E+06 -0.6534119E-01  0.1091520E+00 -0.1509913E+00  0.1336030E+05 -0.1636147E+01  0.1800868E+00  0.7494425E+00  0.1901248E+05 -0.1505471E+01  0.1172114E-01  0.3121413E+01  0.3674601E+06  0.6534119E-01  0.1311114E+00  0.1620109E+00  0.1336029E+05 -0.1505482E+01  0.2277846E-01 -0.1875599E+01
  0.2200000E+00  0.3921119E+05 -0.1817745E+01  0.7910177E-01  0.3139278E+01  0.2237155E+06 -0.5183672E-08  0.6484846E+00  0.1204761E-01  0.2741972E+06 -0.1559128E+01  0.5978605E-01 -0.2471954E+01  0.2152712E+05 -0.1645085E+01  0.2807617E-02  0.3141593E+01  0.3644242E+06 -0.7428945E-01  0.3517744E-01 -0.3106884E+01  0.1526688E+05 -0.1645108E+01  0.3381409E+00 -0.1372512E+00  0.2152714E+05 -0.1496496E+01  0.1379881E-01 -0.2654244E-01  0.3644242E+06  0.7428946E-01  0.1162274E+00  0.1680514E-01  0.1526690E+05 -0.1496471E+01  0.1004550E+00 -0.8223547E+00
  0.2400000E+00  0.4374912E+05 -0.1789575E+01  0.2148992E-01 -0.3118869E+01  0.2176917E+06 -0.8411229E-08  0.2031274E+00 -0.4807655E-02  0.3062581E+06 -0.1560448E+01  0.1132307E+00 -0.2879879E+01  0.2425382E+05 -0.1654877E+01  0.5006191E-02 -0.2286187E-01  0.3611186E+06 -0.8407853E-01  0.9126274E-01  0.1429374E+00  0.1737316E+05 -0.1654873E+01  0.9390374E-01 -0.2271527E+01  0.2425378E+05 -0.1486730E+01  0.1159909E-01  0.3121201E+01  0.3611186E+06  0.8407852E-01  0.1360514E+00 -0.1083288E+00  0.1737319E+05 -0.1486701E+01  0.4524463E+00  0.3066518E+01
  0.2600000E+00  0.4868741E+05 -0.1765029E+01  0.6845740E-02 -0.3088072E+01  0.2111958E+06  0.1300491E-08  0.5937789E+00 -0.9868100E-02  0.3404946E+06 -0.1561583E+01  0.3274034E-01  0.3028849E+00  0.2722353E+05 -0.1665637E+01  0.8914476E-02 -0.3114202E+01  0.3575516E+06 -0.9483843E-01  0.2710060E+00  0.3133034E+01  0.1971139E+05 -0.1665628E+01  0.1797890E+00  0.2602571E+01  0.2722357E+05 -0.1475953E+01  0.8914476E-02  0.3114202E+01  0.3575515E+06  0.9483844E-01  0.1620632E+00 -0.3067709E+01  0.1971140E+05 -0.1475956E+01  0.2791057E+00  0.2829524E+01
  0.2800000E+00  0.5406181E+05 -0.1743520E+01  0.5957081E-01 -0.3137494E+01  0.2042469E+06  0.8964907E-09  0.3594082E+00 -0.1358612E-01  0.3770863E+06 -0.1562568E+01  0.1562500E-01  0.0000000E+00  0.3046503E+05 -0.1677491E+01  0.3791095E-02  0.6041028E-01  0.3537322E+06 -0.1066953E+00  0.2130266E+00  0.3065018E+01  0.2231388E+05 -0.1677492E+01  0.1421435E+00  0.1543312E+01  0.3046501E+05 -0.1464100E+01  0.9888649E-02  0.3127705E+01  0.3537322E+06  0.1066953E+00  0.3830718E-01  0.2702174E+01  0.2231386E+05 -0.1464115E+01  0.1142894E+00 -0.1372982E+01
  0.3000000E+00  0.5989567E+05 -0.1724624E+01  0.3808613E-01 -0.3205117E-02  0.1968676E+06 -0.9610974E-08  0.3047642E+00  0.3119160E+01  0.4161080E+06 -0.1563429E+01  0.1262148E+00  0.1951303E+01  0.3400047E+05 -0.1690544E+01  0.4001907E-02 -0.2190825E+00  0.3496717E+06 -0.1197571E+00  0.1396767E+00  0.2010219E-01  0.2520992E+05 -0.1690569E+01  0.4366024E+00  0.3122579E+01  0.3400052E+05 -0.1451044E+01  0.5906886E-02  0.3014674E+01  0.3496718E+06  0.1197571E+00  0.9186989E-01  0.3987247E-01  0.2520984E+05 -0.1451044E+01  0.7010982E+00 -0.2937334E+01
  0.3200000E+00  0.6619270E+05 -0.1708025E+01  0.4785172E-01 -0.3139042E+01  0.1890830E+06 -0.1323462E-07  0.1125004E+01  0.2604161E-02  0.4574841E+06 -0.1564184E+01  0.1610588E-01 -0.2896614E+01  0.3784238E+05 -0.1704902E+01  0.5879685E-02  0.8314123E-01  0.3453816E+06 -0.1341008E+00  0.1340937E+00 -0.3074177E+01  0.2842296E+05 -0.1704894E+01  0.4170849E+00  0.9908621E-01  0.3784237E+05 -0.1436691E+01  0.2248216E-01 -0.3098142E+01  0.3453816E+06  0.1341007E+00  0.1830241E-01 -0.1410034E+01  0.2842288E+05 -0.1436712E+01  0.9478223E-01 -0.3551530E+00
  0.3400000E+00  0.7293311E+05 -0.1693470E+01  0.6054688E-01  0.3141593E+01  0.1809194E+06 -0.2125375E-07  0.6953235E+00 -0.3135975E+01  0.5009668E+06 -0.1564842E+01  0.1570293E+00  0.9966865E-01  0.4199013E+05 -0.1720557E+01  0.2167393E-01 -0.7893171E-01  0.3408743E+06 -0.1497622E+00  0.5758420E-01  0.2851354E+01  0.3196888E+05 -0.1720558E+01  0.4069684E+00 -0.3082168E+01  0.4199021E+05 -0.1421036E+01  0.2067029E-01  0.2975473E+01  0.3408743E+06  0.1497622E+00  0.6442029E-02 -0.1713791E+00  0.3196883E+05 -0.1421046E+01  0.4135014E-01 -0.1784982E+01
  0.3600000E+00  0.8007372E+05 -0.1680739E+01  0.9179720E-01  0.3138933E+01  0.1724050E+06 -0.1876316E-07  0.9922048E+00  0.5905443E-02  0.5461474E+06 -0.1565418E+01  0.6629126E-01  0.7853982E+00  0.4643148E+05 -0.1737532E+01  0.2819575E-02  0.3049463E+01  0.3361619E+06 -0.1667363E+00  0.1076392E+00  0.3078042E+01  0.3585467E+05 -0.1737544E+01  0.2058939E+00 -0.8904959E-01  0.4643143E+05 -0.1404066E+01  0.1102087E-01 -0.2871090E+01  0.3361619E+06  0.1667363E+00  0.1084688E+00  0.2782822E+01  0.3585467E+05 -0.1404051E+01  0.7121622E+00  0.5865517E-01
  0.3800000E+00  0.8755394E+05 -0.1669626E+01  0.5859578E-01 -0.3133260E+01  0.1635664E+06  0.1007511E-07  0.9393293E-01  0.3079174E+01  0.5925092E+06 -0.1565920E+01  0.1250610E+00  0.3110353E+01  0.5114474E+05 -0.1755785E+01  0.2251066E-01  0.3075115E+01  0.3312554E+06 -0.1849872E+00  0.3320043E-01  0.1130171E+01  0.4008074E+05 -0.1755784E+01  0.3360283E+00  0.2325162E-01  0.5114469E+05 -0.1385808E+01  0.6841453E-02 -0.3101436E+01  0.3312554E+06  0.1849872E+00  0.1577179E+00 -0.1931454E+00  0.4008056E+05 -0.1385817E+01  0.2395765E+00 -0.3668812E+00
  0.4000000E+00  0.9530386E+05 -0.1659931E+01  0.9375032E-01 -0.3138988E+01  0.1544302E+06 -0.7904564E-09  0.4532765E+00 -0.2585630E-01  0.6394702E+06 -0.1566357E+01  0.9119233E-01  0.8156919E+00  0.5610355E+05 -0.1775263E+01  0.5128406E-02  0.6673061E+00  0.3261660E+06 -0.2044619E+00  0.3849088E-01  0.2692128E+01  0.4464413E+05 -0.1775253E+01  0.9672930E-01 -0.2494053E+01  0.5610352E+05 -0.1366330E+01  0.1642288E-02 -0.8379812E+00  0.3261660E+06  0.2044619E+00  0.7589446E-01 -0.2852909E+01  0.4464408E+05 -0.1366336E+01  0.2379369E+00  0.3068677E+01
  0.4200000E+00  0.1032519E+06 -0.1651467E+01  0.4980529E-01 -0.4901921E-02  0.1450238E+06  0.2483091E-07  0.4453510E+00  0.3128436E+01  0.6864554E+06 -0.1566740E+01  0.2410824E+00 -0.2275908E+01  0.6128065E+05 -0.1795906E+01  0.5940198E-02  0.1651487E+00  0.3209039E+06 -0.2251053E+00  0.1874059E+00 -0.2146418E+00  0.4954087E+05 -0.1795900E+01  0.6095841E+00  0.6117759E+00  0.6128063E+05 -0.1345691E+01  0.3936649E-02 -0.3017238E+01  0.3209039E+06  0.2251053E+00  0.3651698E-01  0.2190315E+00  0.4954083E+05 -0.1345695E+01  0.2874348E+00 -0.1547011E+01
  0.4400000E+00  0.1113284E+06 -0.1644060E+01  0.1180995E-01 -0.3017238E+01  0.1353758E+06  0.1803429E-08  0.1721522E+00 -0.5675716E-01  0.7329208E+06 -0.1567074E+01  0.2345052E+00  0.3108272E+01  0.6665142E+05 -0.1817667E+01  0.6335981E-02 -0.2751248E+01  0.3154796E+06 -0.2468700E+00  0.4021749E-01  0.1021528E+01  0.5476838E+05 -0.1817665E+01  0.6582394E+00  0.3019262E+01  0.6665140E+05 -0.1323926E+01  0.3349852E-02 -0.1866616E+01  0.3154796E+06  0.2468700E+00  0.3359596E-01 -0.2322788E+01  0.5476830E+05 -0.1323928E+01  0.4633745E+00 -0.4608201E+00
  0.4600000E+00  0.1194684E+06 -0.1637557E+01  0.1435555E+00 -0.3401347E-02  0.1255134E+06  0.4862838E-08  0.4062547E+00  0.3136785E+01  0.7783662E+06 -0.1567367E+01  0.8350608E-01 -0.1759018E+01  0.7219398E+05 -0.1840513E+01  0.5190501E-02 -0.2422763E+01  0.3099032E+06 -0.2697192E+00  0.1538861E+00 -0.2943575E+01  0.6032580E+05 -0.1840517E+01  0.1776406E+00  0.1820775E+01  0.7219395E+05 -0.1301082E+01  0.4092542E-02 -0.2838708E+01  0.3099032E+06  0.2697192E+00  0.4634815E-01  0.2884296E+00  0.6032560E+05 -0.1301080E+01  0.2784669E+00 -0.1405215E+01
  0.4800000E+00  0.1276105E+06 -0.1631824E+01  0.8400176E-01 -0.2034603E-01  0.1154696E+06  0.7400147E-08  0.3283342E+00 -0.3569911E-01  0.8223291E+06 -0.1567625E+01  0.1349212E+00 -0.2755710E+01  0.7788944E+05 -0.1864421E+01  0.7533825E-02  0.2436481E+01  0.3041857E+06 -0.2936269E+00  0.7666638E-01 -0.2700733E+01  0.6621460E+05 -0.1864429E+01  0.1040348E+00  0.5645694E+00  0.7788945E+05 -0.1277169E+01  0.3720642E-02 -0.2425849E+01  0.3041857E+06  0.2936270E+00  0.1174842E+00  0.2906694E+01  0.6621438E+05 -0.1277168E+01  0.2739472E+00 -0.4708216E+00
  0.5000000E+00  0.1356968E+06 -0.1626749E+01  0.1455086E+00 -0.3138237E+01  0.1052746E+06 -0.1159542E-08  0.2343750E-01  0.3141593E+01  0.8643899E+06 -0.1567853E+01  0.9504317E-01 -0.1651487E+00  0.8372151E+05 -0.1889372E+01  0.2013235E-02  0.2896614E+01  0.2983380E+06 -0.3185766E+00  0.8077071E-01  0.5502688E+00  0.7243743E+05 -0.1889379E+01  0.2620633E+00 -0.7788106E+00  0.8372161E+05 -0.1252218E+01  0.1091830E-02 -0.4636476E+00  0.2983380E+06  0.3185766E+00  0.2905684E-01 -0.6603063E+00  0.7243734E+05 -0.1252218E+01  0.2383364E+00  0.3120080E+01
  0.5200000E+00  0.1436705E+06 -0.1622234E+01  0.4005097E-01 -0.3117207E+01  0.9496301E+05  0.5141805E-08  0.2032752E+00  0.3844259E-01  0.9041531E+06 -0.1568056E+01  0.1252439E+00  0.3079174E+01  0.8967550E+05 -0.1915353E+01  0.7109482E-02 -0.2863293E+01  0.2923712E+06 -0.3445579E+00  0.5673788E-01 -0.6848212E+00  0.7899816E+05 -0.1915352E+01  0.2373449E+00  0.2883641E+01  0.8967547E+05 -0.1226240E+01  0.7873299E-02  0.1243550E+00  0.2923712E+06  0.3445579E+00  0.8279248E-01  0.1079451E+01  0.7899811E+05 -0.1226242E+01  0.1411665E+00  0.1319106E+01
  0.5400000E+00  0.1514764E+06 -0.1618201E+01  0.6934281E-01 -0.3127509E+01  0.8456861E+05 -0.1876481E-07  0.2501220E+00  0.3110353E+01  0.9412499E+06 -0.1568237E+01  0.1118580E+00 -0.2110933E+00  0.9573797E+05 -0.1942361E+01  0.4846437E-02  0.2508167E+01  0.2862970E+06 -0.3715650E+00  0.1660874E-01  0.2940329E-01  0.8590145E+05 -0.1942362E+01  0.2356937E+00  0.4135967E+00  0.9573797E+05 -0.1199234E+01  0.3470427E-02 -0.2168555E+01  0.2862970E+06  0.3715649E+00  0.9065346E-01  0.1230309E+01  0.8590159E+05 -0.1199227E+01  0.2162623E+00  0.1803180E+01
  0.5600000E+00  0.1590592E+06 -0.1614583E+01  0.4885009E-01  0.3111602E+01  0.7412856E+05 -0.4940214E-07  0.4062688E+00  0.9615088E-02  0.9753328E+06 -0.1568400E+01  0.1610588E+00  0.1969319E+01  0.1018963E+06 -0.1970393E+01  0.3100802E-02  0.2963500E+01  0.2801268E+06 -0.3995942E+00  0.5938442E-01  0.1226943E+01  0.9315170E+05 -0.1970392E+01  0.3909301E+00  0.4468894E+00  0.1018962E+06 -0.1171202E+01  0.4470591E-02 -0.8917910E+00  0.2801268E+06  0.3995942E+00  0.7064275E-01 -0.1887082E+01  0.9315177E+05 -0.1171201E+01  0.4430560E+00 -0.3086461E+01
  0.5800000E+00  0.1663633E+06 -0.1611324E+01  0.1191446E+00  0.3133396E+01  0.6367874E+05  0.7092793E-07  0.1800692E+00  0.3076468E+01  0.1006064E+07 -0.1568546E+01  0.1096537E+00  0.7130747E-01  0.1081383E+06 -0.1999442E+01  0.5611253E-02  0.7700148E+00  0.2738722E+06 -0.4286455E+00  0.8691029E-01  0.7436729E+00  0.1007538E+06 -0.1999440E+01  0.4844540E+00  0.1852696E+01  0.1081382E+06 -0.1142149E+01  0.9717441E-02  0.2672327E+01  0.2738722E+06  0.4286454E+00  0.1821880E+00 -0.2546366E-01  0.1007538E+06 -0.1142153E+01  0.3242309E+00  0.2698183E+00
  0.6000000E+00  0.1733326E+06 -0.1608377E+01  0.4590103E-01  0.1063790E-01  0.5325658E+05 -0.1787851E-06  0.8282079E+00  0.3127443E+01  0.1033127E+07 -0.1568678E+01  0.2543566E+00 -0.1385448E+01  0.1144515E+06 -0.2029512E+01  0.1760523E-02 -0.9827937E+00  0.2675449E+06 -0.4587160E+00  0.5685123E-01  0.1831399E+01  0.1087115E+06 -0.2029516E+01  0.2313943E+00  0.2756910E+00  0.1144517E+06 -0.1112080E+01  0.9121846E-02 -0.2870646E+01  0.2675449E+06  0.4587160E+00  0.6575002E-01 -0.3605090E+00  0.1087113E+06 -0.1112080E+01  0.1707707E+00 -0.1819242E+01
  0.6199999E+00  0.1799121E+06 -0.1605702E+01  0.1210947E+00 -0.4032236E-02  0.4289985E+05 -0.2191013E-06  0.4687500E-01  0.0000000E+00  0.1056227E+07 -0.1568798E+01  0.7812500E-01  0.9272952E+00  0.1208249E+06 -0.2060602E+01  0.3623248E-02  0.2572279E+01  0.2611564E+06 -0.4898067E+00  0.1409138E+00 -0.2708943E+01  0.1170280E+06 -0.2060605E+01  0.3225082E+00  0.2069660E+01  0.1208250E+06 -0.1080990E+01  0.2849760E-02  0.1721908E+00  0.2611564E+06  0.4898067E+00  0.1725651E+00  0.3002497E+01  0.1170279E+06 -0.1080989E+01  0.2721965E+00  0.7549507E+00
  0.6400000E+00  0.1860440E+06 -0.1603265E+01  0.7258823E-02  0.2798569E+01  0.3264728E+05 -0.1420845E-06  0.6358914E-01  0.1853479E+00  0.1075082E+07 -0.1568906E+01  0.1720525E+00 -0.2259721E+01  0.1272464E+06 -0.2092713E+01  0.4792329E-02 -0.1148766E+00  0.2547178E+06 -0.5219170E+00  0.6290306E-01  0.2657115E+01  0.1257064E+06 -0.2092711E+01  0.3096770E+00  0.8366500E-01  0.1272463E+06 -0.1048881E+01  0.2839939E-02 -0.1510153E+00  0.2547178E+06  0.5219170E+00  0.1793927E+00 -0.2617045E+01  0.1257064E+06 -0.1048880E+01  0.2392658E+00 -0.1578959E+01
  0.6600000E+00  0.1916745E+06 -0.1601038E+01  0.4980708E-01  0.9803607E-02  0.2253570E+05 -0.3250052E-07  0.2188895E+00 -0.3569911E-01  0.1089438E+07 -0.1569005E+01  0.1572235E+00  0.2677945E+01  0.1337046E+06 -0.2125844E+01  0.2293493E-02  0.4398426E+00  0.2482412E+06 -0.5550462E+00  0.1205382E+00 -0.2381977E+01  0.1347500E+06 -0.2125844E+01  0.3764433E+00 -0.1469450E+01  0.1337043E+06 -0.1015749E+01  0.3908157E-02  0.1539557E+01  0.2482412E+06  0.5550462E+00  0.1180341E+00  0.2266859E+01  0.1347498E+06 -0.1015752E+01  0.1776941E+00  0.2539871E+01
  0.6799999E+00  0.1967485E+06 -0.1598996E+01  0.1101613E-01 -0.2234766E+00  0.1260617E+05  0.2905015E-06  0.2084635E+00 -0.2267988E+00  0.1099062E+07 -0.1569096E+01  0.3542432E+00 -0.8478169E+00  0.1401880E+06 -0.2159991E+01  0.1370671E-01 -0.3070285E+01  0.2417372E+06 -0.5891944E+00  0.2008427E+00 -0.3732830E+00  0.1441590E+06 -0.2159992E+01  0.2725349E+00  0.2329328E-01  0.1401879E+06 -0.9816027E+00  0.1005433E-01  0.2634494E+01  0.2417372E+06  0.5891943E+00  0.3932104E-01 -0.4914182E+00  0.1441588E+06 -0.9816029E+00  0.7594971E+00 -0.1454814E+01
  0.7000000E+00  0.2012112E+06 -0.1597118E+01  0.2930094E-01 -0.3124928E+01  0.2891762E+04 -0.2701640E-05  0.2580787E+00  0.4542328E-01  0.1103734E+07 -0.1569179E+01  0.5080528E+00  0.1601556E+01  0.1466859E+06 -0.2195158E+01  0.6103516E-04  0.1570796E+01  0.2352164E+06 -0.6243624E+00  0.1408418E-01 -0.2553590E+01  0.1539353E+06 -0.2195158E+01  0.3840188E+00  0.2651785E+01  0.1466860E+06 -0.9464328E+00  0.3108002E-02 -0.2801211E+01  0.2352164E+06  0.6243623E+00  0.6385852E-01 -0.4089078E+00  0.1539354E+06 -0.9464346E+00  0.2993447E+00  0.1629552E+01
  0.7200000E+00  0.2050115E+06 -0.1595385E+01  0.6055475E-01  0.3125465E+01  0.6567578E+04 -0.3141593E+01  0.4453125E+00  0.0000000E+00  0.1103280E+07 -0.1569255E+01  0.6629126E-01 -0.7853982E+00  0.1531874E+06 -0.2231344E+01  0.1200082E-01 -0.2978116E+01  0.2286896E+06 -0.6605498E+00  0.6508993E-01  0.3074027E+01  0.1640787E+06 -0.2231347E+01  0.2020257E+00  0.1662769E+01  0.1531875E+06 -0.9102477E+00  0.5632457E-02  0.1048962E+01  0.2286896E+06  0.6605498E+00  0.1019304E+00  0.3011890E+01  0.1640787E+06 -0.9102451E+00  0.9370548E-01 -0.1411601E+00
  0.7399999E+00  0.2080975E+06 -0.1593782E+01  0.4599184E-01 -0.3077849E+01  0.1573825E+05  0.3141592E+01  0.2266972E+00 -0.3107124E+01  0.1097538E+07 -0.1569325E+01  0.2037251E+00 -0.1647568E+01  0.1596825E+06 -0.2268553E+01  0.2762136E-02 -0.2356194E+01  0.2221675E+06 -0.6977565E+00  0.1795388E-01 -0.1180189E+01  0.1745887E+06 -0.2268553E+01  0.9022111E-01 -0.2753046E+01  0.1596824E+06 -0.8730392E+00  0.9765625E-03 -0.1570796E+01  0.2221675E+06  0.6977565E+00  0.4590882E-01 -0.5112307E+00  0.1745889E+06 -0.8730397E+00  0.4687912E+00  0.1021803E+01
  0.7600000E+00  0.2104212E+06 -0.1592293E+01  0.1240273E+00  0.7873853E-02  0.2458293E+05 -0.3141592E+01  0.8156490E-01  0.2850136E+01  0.1086379E+07 -0.1569390E+01  0.3525161E+00 -0.1794273E+01  0.1661604E+06 -0.2306779E+01  0.7168189E-02  0.1294836E+01  0.2156596E+06 -0.7359830E+00  0.2547500E-01 -0.1783228E+01  0.1854646E+06 -0.2306781E+01  0.4286411E+00  0.2615563E+00  0.1661607E+06 -0.8348144E+00  0.5281922E-02 -0.3912356E+00  0.2156596E+06  0.7359830E+00  0.8235902E-01  0.8525240E+00  0.1854646E+06 -0.8348125E+00  0.4189499E+00  0.2493430E+01
  0.7800000E+00  0.2119365E+06 -0.1590908E+01  0.4834971E-01 -0.2019927E-01  0.3307148E+05  0.3141593E+01  0.5633674E-01  0.9827937E+00  0.1069698E+07 -0.1569450E+01  0.2176311E+00  0.1203622E+01  0.1726112E+06 -0.2346025E+01  0.5694289E-02 -0.5404195E+00  0.2091758E+06 -0.7752285E+00  0.1685808E-01 -0.1396124E+01  0.1967031E+06 -0.2346024E+01  0.2917005E+00 -0.1857603E+01  0.1726113E+06 -0.7955670E+00  0.6905340E-02  0.1712693E+01  0.2091758E+06  0.7752286E+00  0.3115831E-01 -0.5619215E+00  0.1967033E+06 -0.7955661E+00  0.5853435E+00 -0.6122978E+00
  0.8000000E+00  0.2126011E+06 -0.1589614E+01  0.2345784E-01 -0.4164258E-01  0.4117030E+05  0.3141593E+01  0.3221176E-01 -0.2449787E+00  0.1047431E+07 -0.1569504E+01  0.3296097E+00 -0.1475845E+01  0.1790258E+06 -0.2386289E+01  0.1269546E-01  0.1575604E+01  0.2027258E+06 -0.8154938E+00  0.1087564E+00 -0.1923787E+01  0.2083028E+06 -0.2386292E+01  0.1799083E+00 -0.6603290E+00  0.1790259E+06 -0.7553018E+00  0.4991840E-02 -0.1780182E+01  0.2027258E+06  0.8154938E+00  0.3546011E-01  0.2473303E+01  0.2083026E+06 -0.7553012E+00  0.4077900E+00  0.1176282E+01
  0.8200000E+00  0.2123757E+06 -0.1588402E+01  0.4199219E-01  0.3141593E+01  0.4884921E+05  0.3141593E+01  0.2843793E-01 -0.2782997E+00  0.1019540E+07 -0.1569555E+01  0.1425647E+00  0.1405648E+01  0.1853947E+06 -0.2427574E+01  0.1019561E-01  0.2850136E+01  0.1963185E+06 -0.8567780E+00  0.5973219E-01  0.1000932E+01  0.2202578E+06 -0.2427574E+01  0.6537802E+00  0.2652558E+01  0.1853948E+06 -0.7140180E+00  0.1381068E-02 -0.2356194E+01  0.1963185E+06  0.8567780E+00  0.6593244E-01  0.3240925E+00  0.2202579E+06 -0.7140186E+00  0.4657256E+00  0.2075247E+01
  0.8400000E+00  0.2112248E+06 -0.1587263E+01  0.1220703E-01  0.0000000E+00  0.5608162E+05 -0.3141593E+01  0.3314563E-01  0.2356194E+01  0.9860120E+06 -0.1569601E+01  0.3203125E+00 -0.1792111E+01  0.1917091E+06 -0.2469877E+01  0.6835938E-02  0.1570796E+01  0.1899621E+06 -0.8990816E+00  0.1068990E+00 -0.1437943E+01  0.2325650E+06 -0.2469880E+01  0.7570112E+00  0.3075754E+01  0.1917090E+06 -0.6717149E+00  0.5524272E-02 -0.2356194E+01  0.1899621E+06  0.8990816E+00  0.8863885E-01  0.1878610E+01  0.2325650E+06 -0.6717139E+00  0.2665434E+00 -0.1232825E+01
  0.8600000E+00  0.2091181E+06 -0.1586189E+01  0.1806641E-01  0.0000000E+00  0.6284373E+05 -0.3141593E+01  0.2355440E+00  0.3041924E+01  0.9468728E+06 -0.1569644E+01  0.5469308E+00  0.1585081E+01  0.1979608E+06 -0.2513202E+01  0.4230842E-02  0.1107149E+01  0.1836654E+06 -0.9424049E+00  0.3041487E-01 -0.8308215E+00  0.2452185E+06 -0.2513201E+01  0.2553837E+00  0.2917947E+01  0.1979608E+06 -0.6283916E+00  0.6414501E-02 -0.1107149E+01  0.1836654E+06  0.9424050E+00  0.7031928E-01  0.1738228E+01  0.2452188E+06 -0.6283910E+00  0.1667186E+00  0.2947069E+01
  0.8800001E+00  0.2060297E+06 -0.1585171E+01  0.1220703E-01  0.0000000E+00  0.6911103E+05 -0.3141593E+01  0.1156804E+00 -0.2040180E+00  0.9021810E+06 -0.1569682E+01  0.5638547E+00  0.1501463E+01  0.2041417E+06 -0.2557544E+01  0.1397425E-01  0.1817894E+01  0.1774362E+06 -0.9867475E+00  0.6808854E-01  0.1758347E+01  0.2582137E+06 -0.2557543E+01  0.4708216E+00  0.2177784E+01  0.2041416E+06 -0.5840485E+00  0.5737305E-02 -0.1570796E+01  0.1774362E+06  0.9867474E+00  0.3671212E-01 -0.1329044E+01  0.2582135E+06 -0.5840499E+00  0.2718323E+00 -0.2194178E+01
  0.9000000E+00  0.2019393E+06 -0.1584204E+01  0.1171875E-01  0.3141593E+01  0.7486386E+05  0.3141593E+01  0.6442352E-01 -0.2449787E+00  0.8520222E+06 -0.1569717E+01  0.5625542E+00  0.1556908E+01  0.2102435E+06 -0.2602905E+01  0.6330025E-02 -0.2451793E+01  0.1712816E+06 -0.1032109E+01  0.5427889E-01  0.1905348E+01  0.2715405E+06 -0.2602906E+01  0.3778250E+00 -0.1773134E+01  0.2102435E+06 -0.5386872E+00  0.3784180E-02 -0.1570796E+01  0.1712816E+06  0.1032109E+01  0.1901791E-01 -0.5095923E+00  0.2715404E+06 -0.5386872E+00  0.1581074E+00  0.6385598E+00
  0.9200000E+00  0.1968314E+06 -0.1583279E+01  0.1097276E-01 -0.3639790E+00  0.8008754E+05 -0.3141593E+01  0.8043461E-01 -0.2634494E+01  0.7965170E+06 -0.1569748E+01  0.5625000E+00  0.1570796E+01  0.2162598E+06 -0.2649287E+01  0.3936649E-02 -0.1446441E+01  0.1652088E+06 -0.1078490E+01  0.9157096E-01 -0.2282604E+01  0.2851937E+06 -0.2649286E+01  0.2039779E+00 -0.2982937E+01  0.2162599E+06 -0.4923066E+00  0.1464844E-02  0.3141593E+01  0.1652088E+06  0.1078490E+01  0.6222904E-01  0.2560119E+01  0.2851936E+06 -0.4923064E+00  0.3009845E+00 -0.2056937E+01
  0.9399999E+00  0.1906988E+06 -0.1582391E+01  0.3126526E-02  0.2466852E+01  0.8476617E+05  0.3141593E+01  0.1508844E+00  0.2770701E+01  0.7358235E+06 -0.1569774E+01  0.2037251E+00 -0.1647568E+01  0.2221838E+06 -0.2696687E+01  0.4639073E-02  0.1001040E+01  0.1592243E+06 -0.1125891E+01  0.1035297E+00  0.1587304E+01  0.2991633E+06 -0.2696687E+01  0.1973220E+00  0.1965778E+01  0.2221838E+06 -0.4449051E+00  0.4100272E-02  0.2345669E+01  0.1592243E+06  0.1125891E+01  0.4699247E-01  0.2160240E+01  0.2991635E+06 -0.4449064E+00  0.8479297E+00  0.1235752E+01
  0.9600000E+00  0.1835374E+06 -0.1581530E+01  0.2681549E-01  0.1831108E+00  0.8889046E+05  0.3141593E+01  0.9889835E-01  0.2982937E+01  0.6701218E+06 -0.1569795E+01  0.1876627E+00 -0.1612439E+01  0.2280088E+06 -0.2745108E+01  0.4882812E-02 -0.2214298E+01  0.1533341E+06 -0.1174311E+01  0.7243039E-01  0.1638261E+01  0.3134408E+06 -0.2745108E+01  0.2068383E+00 -0.2341171E+01  0.2280088E+06 -0.3964852E+00  0.3521046E-02 -0.2158799E+01  0.1533341E+06  0.1174311E+01  0.6247711E-01 -0.1135113E+01  0.3134406E+06 -0.3964851E+00  0.2169096E+00 -0.3951374E+00
  0.9800000E+00  0.1753541E+06 -0.1580691E+01  0.2833715E-01  0.3446910E-01  0.9245330E+05  0.3141593E+01  0.2849220E+00  0.3031693E+01  0.5996278E+06 -0.1569810E+01  0.4236796E+00 -0.1478467E+01  0.2337293E+06 -0.2794547E+01  0.1104386E-01  0.1390201E+01  0.1475444E+06 -0.1223750E+01  0.8997004E-01 -0.1382448E+01  0.3280157E+06 -0.2794547E+01  0.2065014E+00 -0.4448767E+00  0.2337292E+06 -0.3470465E+00  0.3640173E-02 -0.6066051E+00  0.1475444E+06  0.1223750E+01  0.5719199E-01  0.1617770E+01  0.3280157E+06 -0.3470462E+00  0.1742017E+00 -0.7725148E+00
  0.9999999E+00  0.1661599E+06 -0.1579862E+01  0.3501014E-01  0.3001668E+01  0.9545088E+05  0.3141593E+01  0.2017778E+00  0.3064078E+01  0.5245868E+06 -0.1569817E+01  0.5629880E+00  0.1612439E+01  0.2393395E+06 -0.2845006E+01  0.3204200E-02  0.1261093E+01  0.1418598E+06 -0.1274210E+01  0.5148083E-01  0.1100786E+01  0.3428775E+06 -0.2845005E+01  0.3988062E+00  0.8581027E-01  0.2393394E+06 -0.2965865E+00  0.6001342E-02 -0.1489344E+01  0.1418597E+06  0.1274210E+01  0.1240775E+00 -0.1541277E+01  0.3428776E+06 -0.2965867E+00  0.1881589E+00  0.1126879E+01
  0.1020000E+01  0.1559744E+06 -0.1579034E+01  0.1974976E-01  0.2992703E+01  0.9788330E+05  0.3141593E+01  0.5341181E+00  0.3083051E+01  0.4452792E+06 -0.1569811E+01  0.2501220E-01 -0.6747410E+00  0.2448344E+06 -0.2896484E+01  0.1735213E-02  0.2543834E+01  0.1362855E+06 -0.1325688E+01  0.1287101E+00 -0.1503408E+01  0.3580149E+06 -0.2896483E+01  0.1838111E+00  0.2681955E+01  0.2448344E+06 -0.2451088E+00  0.4910296E-02  0.1464943E+01  0.1362855E+06  0.1325688E+01  0.3634089E-01  0.1374718E+01  0.3580149E+06 -0.2451085E+00  0.2129020E+00  0.1581117E+01
  0.1040000E+01  0.1448249E+06 -0.1578193E+01  0.1574660E-01 -0.1243550E+00  0.9975450E+05  0.3141593E+01  0.8158828E-01  0.2948892E+01  0.3620058E+06 -0.1569785E+01  0.5110026E+00 -0.1778686E+01  0.2502097E+06 -0.2948982E+01  0.2287037E-02 -0.2004602E+01  0.1308257E+06 -0.1378186E+01  0.2166705E-01  0.1440851E+01  0.3734161E+06 -0.2948982E+01  0.2679299E+00  0.2489480E+01  0.2502097E+06 -0.1926119E+00  0.1125433E-02  0.1789465E+01  0.1308257E+06  0.1378186E+01  0.1077612E-01  0.1491418E+01  0.3734160E+06 -0.1926099E+00  0.6302531E+00  0.1386924E+01