VARIABLES="w (rad/s)"
"A   1   1" "B   1   1"
"A   1   2" "B   1   2"
"A   1   3" "B   1   3"
"A   1   4" "B   1   4"
"A   1   5" "B   1   5"
"A   1   6" "B   1   6"
"A   2   1" "B   2   1"
"A   2   2" "B   2   2"
"A   2   3" "B   2   3"
"A   2   4" "B   2   4"
"A   2   5" "B   2   5"
"A   2   6" "B   2   6"
"A   3   1" "B   3   1"
"A   3   2" "B   3   2"
"A   3   3" "B   3   3"
"A   3   4" "B   3   4"
"A   3   5" "B   3   5"
"A   3   6" "B   3   6"
Zone t="Motion of body    1 in DoF   1",I=   300,F=POINT
  0.2000000E-01  0.5425442E+06  0.1102284E-01 -0.1630783E-01 -0.1518754E-04 -0.1495278E+03 -0.1118286E+00  0.2197266E+00  0.5296990E-04  0.1403149E+07  0.3346939E-01 -0.1179504E+01 -0.3759563E-04  0.1379705E+06  0.8801511E-02  0.2114177E-01 -0.1083827E-06  0.1211870E+05 -0.1650170E+00 -0.5373955E-01 -0.8247327E-05  0.1319484E+06  0.8192820E-02 -0.1890361E-01  0.2900645E-04  0.1376290E+06  0.8775460E-02  0.2780855E-01  0.4231173E-05 -0.1231994E+05 -0.1693501E+00 -0.8387566E-01 -0.6397255E-05  0.1320981E+06  0.8148856E-02 -0.2371892E+00 -0.1145136E-03
  0.4000000E-01  0.5464522E+06  0.6153150E-01 -0.9250641E-02  0.5588867E-05 -0.1486433E+03 -0.2258167E+00  0.2220154E+00  0.3314763E-04  0.1421444E+07  0.2786345E+00 -0.2548218E+00 -0.2377778E-03  0.1421508E+06  0.7255280E-01  0.1885891E-01  0.5910289E-05  0.1236207E+05 -0.3213253E+00 -0.5087852E-01 -0.1624878E-04  0.1406746E+06  0.6965730E-01  0.8510649E-01 -0.1032939E-03  0.1418042E+06  0.7220224E-01  0.1594424E-01 -0.7427996E-05 -0.1255989E+05 -0.3567737E+00 -0.6079674E-01  0.1627393E-04  0.1408177E+06  0.6933875E-01 -0.2014279E+00 -0.1285637E-03
  0.6000000E-01  0.5483061E+06  0.1975947E+00 -0.6739299E-02 -0.2571382E-04 -0.1453207E+03 -0.3441435E+00  0.5900065E-01 -0.2488196E-03  0.1429827E+07  0.9802130E+00  0.1281738E+01  0.1546741E-03  0.1430638E+06  0.2556718E+00  0.1411835E-01 -0.1723587E-04  0.1236767E+05 -0.4583812E+00 -0.7913908E-01  0.5271658E-04  0.1414643E+06  0.2461696E+00  0.7404089E-01  0.2288815E-03  0.1427144E+06  0.2544113E+00  0.5048513E-02 -0.3187917E-05 -0.1256175E+05 -0.5826746E+00 -0.1470248E-01 -0.1663994E-04  0.1416013E+06  0.2448728E+00  0.2067357E+00  0.7333152E-04
  0.8000000E-01  0.5499669E+06  0.4767036E+00 -0.3776550E-01  0.4490837E-05 -0.1445562E+03 -0.4683481E+00  0.1731873E+00 -0.2447069E-03  0.1439200E+07  0.2449583E+01  0.1937866E+01  0.8425713E-03  0.1430259E+06  0.6403589E+00  0.6461143E-02  0.1922599E-04  0.1238431E+05 -0.5605495E+00 -0.6458759E-01 -0.3742427E-04  0.1410118E+06  0.6167331E+00  0.2228439E+00 -0.4791038E-04  0.1426754E+06  0.6372234E+00 -0.4470348E-03 -0.2907123E-05 -0.1257624E+05 -0.8712938E+00 -0.1287460E-01 -0.2116710E-04  0.1411472E+06  0.6136626E+00  0.2551258E+00 -0.5855190E-04
  0.9999999E-01  0.5509610E+06  0.9882234E+00  0.3479004E-01  0.8247048E-04 -0.1443341E+03 -0.6022164E+00 -0.3063965E+00 -0.8852780E-03  0.1447393E+07  0.5152903E+01  0.2138672E+01 -0.1429915E-03  0.1446400E+06  0.1350209E+01  0.1098633E-01  0.2434710E-05  0.1245392E+05 -0.6079813E+00 -0.6246567E-01  0.8846074E-04  0.1448567E+06  0.1313408E+01  0.2825547E+00  0.1382813E-03  0.1442889E+06  0.1343732E+01  0.1355171E-01  0.2184371E-04 -0.1264485E+05 -0.1258221E+01 -0.8535386E-01 -0.5654804E-04  0.1449912E+06  0.1306924E+01 -0.1057959E+00 -0.4478183E-03
  0.1200000E+00  0.5511102E+06  0.1840980E+01  0.1360575E-01  0.4337728E-04 -0.1441668E+03 -0.7459257E+00 -0.1902262E+00  0.1220107E-03  0.1447320E+07  0.9661523E+01  0.3072103E+00  0.1085043E-02  0.1440998E+06  0.2542987E+01 -0.1287460E-02  0.2491428E-04  0.1247673E+05 -0.5646800E+00  0.6739299E-02  0.2840441E-04  0.1433379E+06  0.2477420E+01  0.2874633E+00 -0.1107983E-04  0.1437472E+06  0.2530646E+01 -0.1343091E-01 -0.5257316E-06 -0.1266697E+05 -0.1788311E+01  0.4027685E-01  0.1205876E-04  0.1434698E+06  0.2465218E+01 -0.1367728E+00  0.3117858E-04
  0.1400000E+00  0.5512591E+06  0.3237419E+01 -0.9700230E-02  0.6265938E-05 -0.1429758E+03 -0.9066448E+00  0.2598354E+00  0.3019571E-03  0.1447553E+07  0.1701194E+02  0.3703962E+01  0.3271103E-03  0.1450235E+06  0.4494204E+01  0.1873289E-01  0.4554575E-05  0.1252177E+05 -0.3837548E+00 -0.4245213E-01  0.2480703E-03  0.1450987E+06  0.4400340E+01  0.4943558E+00 -0.1042811E-03  0.1446697E+06  0.4472799E+01 -0.9277889E-02  0.3320165E-05 -0.1271180E+05 -0.2535435E+01  0.4756110E-01  0.3894418E-04  0.1452293E+06  0.4379097E+01  0.1196725E+00  0.6605918E-04
  0.1600000E+00  0.5529638E+06  0.5457793E+01  0.5340576E-02 -0.7982552E-04 -0.1432749E+03 -0.1083466E+01 -0.1945496E+00 -0.7655621E-03  0.1459324E+07  0.2868935E+02  0.4989624E+00 -0.2980232E-03  0.1469202E+06  0.7640058E+01  0.2797842E-01  0.1394108E-04  0.1264553E+05  0.2068141E-01 -0.1235008E+00 -0.6833859E-04  0.1494772E+06  0.7569859E+01  0.4771471E+00 -0.7635186E-04  0.1465660E+06  0.7604713E+01 -0.1441538E-01 -0.5960837E-04 -0.1283660E+05 -0.3599576E+01  0.2956390E-01  0.5627424E-04  0.1496096E+06  0.7535264E+01  0.2811700E-01  0.3812131E-03
  0.1800000E+00  0.5525381E+06  0.8889733E+01  0.4323323E-02 -0.5461276E-04 -0.1415813E+03 -0.1285656E+01  0.1057943E+00  0.9374619E-03  0.1454548E+07  0.4662535E+02  0.1386176E+01  0.1218319E-03  0.1459126E+06  0.1247735E+02  0.2011193E-01  0.2144324E-04  0.1266052E+05  0.7717544E+00 -0.8589426E-01 -0.8513406E-04  0.1467182E+06  0.1234991E+02  0.2001285E+00  0.1371192E-02  0.1455546E+06  0.1242006E+02  0.3194809E-02  0.3087893E-04 -0.1285139E+05 -0.5141833E+01 -0.2502865E-01 -0.2010390E-03  0.1468429E+06  0.1229361E+02 -0.9989473E-01 -0.2326388E-03
  0.2000000E+00  0.5527486E+06  0.1425571E+02  0.5645752E-02  0.1474619E-03 -0.1421205E+03 -0.1505020E+01  0.7690430E-01 -0.1018047E-02  0.1457166E+07  0.7451316E+02  0.1391602E+01 -0.1728535E-02  0.1467689E+06  0.2003434E+02 -0.4878044E-02  0.2038013E-04  0.1276042E+05  0.2074341E+01  0.3873825E-01  0.4614145E-04  0.1477472E+06  0.1986299E+02  0.3401518E+00 -0.1300471E-03  0.1464093E+06  0.1994411E+02 -0.1162291E-01  0.4329532E-04 -0.1295258E+05 -0.7374112E+01 -0.3280640E-02  0.1168400E-03  0.1478713E+06  0.1977517E+02 -0.2541506E+00  0.2962425E-03
  0.2200000E+00  0.5534696E+06  0.2267193E+02 -0.1456521E-01 -0.1913309E-03 -0.1397635E+03 -0.1762051E+01  0.3662109E-01  0.2332926E-02  0.1459694E+07  0.1180722E+03 -0.3329190E-01 -0.8163452E-03  0.1483775E+06  0.3201439E+02  0.2454844E-01  0.4938431E-04  0.1287847E+05  0.4253339E+01 -0.5024997E-01 -0.1745969E-03  0.1510743E+06  0.3196432E+02  0.1082160E+00 -0.7830961E-03  0.1480165E+06  0.3187333E+02  0.6857785E-02 -0.6743520E-04 -0.1307092E+05 -0.1071502E+02 -0.1068289E+00  0.2013296E-03  0.1511980E+06  0.3182901E+02  0.1546340E+00 -0.1302920E-03
  0.2400000E+00  0.5538759E+06  0.3541827E+02 -0.2937317E-01 -0.3755093E-04 -0.1394852E+03 -0.2035548E+01  0.1332601E+00  0.1465797E-02  0.1462205E+07  0.1835629E+03  0.1344808E+01 -0.3643990E-02  0.1486867E+06  0.5031802E+02  0.1029968E-01  0.8740276E-04  0.1301303E+05  0.7780890E+01 -0.3070831E-01 -0.1417696E-03  0.1514480E+06  0.5072734E+02 -0.1115004E-01  0.8614548E-03  0.1483216E+06  0.5010153E+02  0.2029340E-01  0.8321553E-04 -0.1320638E+05 -0.1559103E+02 -0.9272894E-01  0.8085370E-04  0.1515641E+06  0.5051781E+02  0.4460613E-01  0.1263954E-02
  0.2600000E+00  0.5543851E+06  0.5530142E+02 -0.1713679E-01 -0.4073977E-03 -0.1370766E+03 -0.2348456E+01 -0.1117413E+00 -0.4699707E-02  0.1463314E+07  0.2848747E+03 -0.5333534E+00  0.5231857E-02  0.1492862E+06  0.7872765E+02 -0.3488614E-01 -0.4000217E-04  0.1310102E+05  0.1344237E+02  0.1414079E+00  0.7778108E-03  0.1517330E+06  0.7956493E+02  0.2949972E+00 -0.2788395E-02  0.1489170E+06  0.7839523E+02 -0.1420608E-01 -0.4841387E-04 -0.1329499E+05 -0.2292254E+02  0.4430918E-01  0.8067489E-04  0.1518428E+06  0.7924480E+02 -0.1119595E+00 -0.1563728E-03
  0.2800000E+00  0.5546601E+06  0.8560154E+02  0.2386911E-01  0.4277229E-03 -0.1368781E+03 -0.2663658E+01 -0.8544922E-01  0.3888130E-02  0.1465199E+07  0.4381662E+03 -0.1935686E+01 -0.6210327E-02  0.1506490E+06  0.1221380E+03 -0.1606260E-01  0.1842529E-04  0.1325752E+05  0.2226143E+02  0.6403242E-01  0.2899170E-03  0.1538346E+06  0.1241890E+03  0.2082791E+00 -0.1171902E-03  0.1502772E+06  0.1216329E+03 -0.6362370E-02  0.3519654E-04 -0.1345193E+05 -0.3370841E+02 -0.2205713E-01  0.3104210E-03  0.1539432E+06  0.1237084E+03 -0.8116449E-01  0.3944784E-03
  0.3000000E+00  0.5563434E+06  0.1315349E+03 -0.1129150E-01  0.3526211E-03 -0.1355963E+03 -0.2968810E+01  0.1627604E+00  0.1914978E-02  0.1475286E+07  0.6694095E+03  0.7226562E+00 -0.3105164E-02  0.1535902E+06  0.1889708E+03  0.1487732E-01 -0.8355081E-04  0.1350570E+05  0.3582064E+02 -0.5978902E-01 -0.7226467E-03  0.1601178E+06  0.1949971E+03  0.3913943E+00 -0.1889117E-02  0.1532156E+06  0.1882190E+03  0.8837382E-03 -0.5780160E-04 -0.1370075E+05 -0.4955194E+02 -0.2166748E-01 -0.3690720E-03  0.1602257E+06  0.1942881E+03  0.1760038E+00 -0.1872346E-02
  0.3200000E+00  0.5570559E+06  0.1991847E+03  0.2193451E-01 -0.5109310E-03 -0.1326410E+03 -0.3288915E+01  0.8316040E-01  0.4016876E-02  0.1476608E+07  0.1005596E+04  0.1568604E+01  0.8964539E-03  0.1534663E+06  0.2872484E+03 -0.1587272E-01  0.2890825E-05  0.1367044E+05  0.5635890E+02  0.3654957E-01  0.1213074E-02  0.1583685E+06  0.2970624E+03  0.3385156E+00  0.2163157E-02  0.1530855E+06  0.2861208E+03 -0.6371737E-02 -0.6905198E-04 -0.1386428E+05 -0.7278963E+02  0.3278255E-01  0.1181602E-02  0.1584654E+06  0.2959982E+03 -0.1930267E+00  0.1403064E-02
  0.3400000E+00  0.5576537E+06  0.2955460E+03  0.2441406E-01  0.7476807E-03 -0.1316527E+03 -0.3485697E+01 -0.9765625E-01 -0.1149368E-01  0.1480534E+07  0.1479309E+04 -0.1367188E+01  0.1464844E-02  0.1546874E+06  0.4276374E+03 -0.2861023E-03  0.2280772E-03  0.1383143E+05  0.8572041E+02  0.3305323E-01 -0.5352497E-03  0.1598657E+06  0.4452255E+03 -0.2313053E+00  0.1739264E-03  0.1543014E+06  0.4259901E+03  0.3437435E-01 -0.1826584E-03 -0.1402402E+05 -0.1049689E+03 -0.1941456E+00  0.4734993E-03  0.1599570E+06  0.4436675E+03 -0.4246529E+00 -0.1954198E-02
  0.3600000E+00  0.5587787E+06  0.4336935E+03 -0.2305773E-01 -0.3495216E-03 -0.1277032E+03 -0.3630787E+01 -0.1356337E-02  0.3761292E-02  0.1484842E+07  0.2150988E+04 -0.1033529E+01  0.1089478E-01  0.1569728E+06  0.6290151E+03  0.1016193E-01  0.4327297E-03  0.1410275E+05  0.1275047E+03 -0.2354516E-01 -0.1675844E-02  0.1635023E+06  0.6606453E+03  0.3458129E+00 -0.1339376E-02  0.1565807E+06  0.6266414E+03  0.7033348E-02 -0.2929568E-03 -0.1429325E+05 -0.1499117E+03 -0.9788936E-01  0.1056194E-02  0.1635853E+06  0.6584072E+03 -0.2084772E+00  0.3365159E-02
  0.3800000E+00  0.5595511E+06  0.6235840E+03 -0.8030942E-03 -0.4396439E-03 -0.1265945E+03 -0.3628335E+01 -0.3854852E-01 -0.3295898E-02  0.1488103E+07  0.3070793E+04 -0.8043791E+00 -0.1969910E-01  0.1596750E+06  0.9099438E+03 -0.1653872E-01  0.2944469E-03  0.1437295E+05  0.1852893E+03  0.9596975E-01  0.2074242E-03  0.1686429E+06  0.9662152E+03 -0.1140068E+00  0.4038393E-02  0.1592783E+06  0.9065908E+03 -0.4868759E-03 -0.2588630E-03 -0.1456032E+05 -0.2110397E+03 -0.9857981E-02 -0.2255440E-03  0.1687243E+06  0.9630793E+03 -0.2918268E+00 -0.3210068E-02
  0.4000000E+00  0.5621938E+06  0.8752969E+03  0.1831055E-02  0.1716614E-03 -0.1253568E+03 -0.3465465E+01  0.1953125E+00  0.3448486E-02  0.1503652E+07  0.4270232E+04  0.5200195E+00  0.1567078E-01  0.1621719E+06  0.1288180E+04  0.6566048E-02 -0.2574921E-03  0.1469508E+05  0.2619080E+03  0.5329132E-01 -0.4382133E-03  0.1729577E+06  0.1388246E+04 -0.2139544E+00 -0.4093647E-03  0.1617689E+06  0.1283548E+04  0.4099369E-01  0.3100634E-03 -0.1488010E+05 -0.2910471E+03 -0.1985741E+00  0.5111694E-03  0.1730307E+06  0.1383919E+04 -0.2965426E+00  0.1170158E-02
  0.4200000E+00  0.5630338E+06  0.1201969E+04 -0.5783808E-01  0.3166199E-03 -0.1196248E+03 -0.3100376E+01  0.1081194E+00 -0.1846313E-02  0.1504154E+07  0.5799424E+04 -0.8184524E+00 -0.1620483E-01  0.1627370E+06  0.1779639E+04  0.1348768E-02  0.3900528E-03  0.1491642E+05  0.3629577E+03  0.1293364E-01 -0.1559258E-02  0.1718061E+06  0.1919174E+04 -0.7449718E+00 -0.1322240E-01  0.1623242E+06  0.1773267E+04  0.2425966E-01  0.7904768E-03 -0.1509683E+05 -0.3956283E+03 -0.1249041E+00 -0.2764702E-02  0.1718624E+06  0.1913147E+04 -0.9105092E+00 -0.1009881E-02
  0.4400000E+00  0.5636606E+06  0.1633823E+04 -0.4314076E-01 -0.1293182E-02 -0.1190102E+03 -0.2521416E+01  0.2929688E+00  0.1908875E-01  0.1506008E+07  0.7787260E+04 -0.6902521E+00 -0.6033325E-01  0.1652909E+06  0.2420055E+04 -0.1049909E-01  0.1048088E-02  0.1516798E+05  0.4923485E+03  0.8316040E-01 -0.8544922E-03  0.1759062E+06  0.2636022E+04 -0.6005591E+00 -0.1811504E-01  0.1648713E+06  0.2411470E+04  0.2800768E-01 -0.3635883E-03 -0.1534365E+05 -0.5285589E+03 -0.1544606E+00  0.1842499E-02  0.1759571E+06  0.2627866E+04 -0.2797625E+00  0.9584069E-02
  0.4600000E+00  0.5649162E+06  0.2176225E+04 -0.6806747E-01 -0.7171631E-03 -0.1176590E+03 -0.1737338E+01  0.5424168E+00  0.3848267E-01  0.1512761E+07  0.1026070E+05  0.9956691E+00 -0.3613281E-01  0.1679957E+06  0.3236326E+04 -0.2425650E-01  0.3132820E-03  0.1552101E+05  0.6539160E+03  0.1878158E+00 -0.2746582E-03  0.1805224E+06  0.3567100E+04 -0.7002416E+00 -0.2021468E-01  0.1675685E+06  0.3224974E+04  0.2095596E-01 -0.1093149E-02 -0.1569280E+05 -0.6936340E+03 -0.6292592E-01  0.1296043E-02  0.1805640E+06  0.3556228E+04  0.4810665E-01 -0.1085413E-01
  0.4800000E+00  0.5667481E+06  0.2854034E+04 -0.4043579E-01 -0.3166199E-03 -0.1130614E+03 -0.6557560E+00  0.1220703E+00  0.5493164E-03  0.1521019E+07  0.1334928E+05  0.7120769E-01 -0.2294922E-01  0.1715996E+06  0.4273395E+04 -0.9981791E-02  0.5054474E-03  0.1587158E+05  0.8551481E+03  0.5502701E-01  0.9346008E-04  0.1875150E+06  0.4776885E+04 -0.1924714E+00 -0.1512432E-01  0.1711635E+06  0.4258552E+04  0.2967119E-01  0.5078316E-04 -0.1603808E+05 -0.8984287E+03 -0.1778285E+00  0.1989365E-02  0.1875453E+06  0.4762620E+04 -0.3951490E+00 -0.1529789E-01
  0.5000000E+00  0.5693949E+06  0.3679256E+04  0.1354980E-01 -0.1495361E-02 -0.1109109E+03  0.7539196E+00 -0.3710938E-01  0.1489258E-01  0.1533100E+07  0.1701315E+05  0.9941406E+00 -0.3051758E-02  0.1750701E+06  0.5571738E+04 -0.3021240E-01 -0.6837845E-03  0.1613857E+05  0.1099343E+04  0.1519775E+00  0.4077911E-02  0.1938673E+06  0.6333304E+04  0.6208878E+00  0.2538538E-01  0.1746269E+06  0.5552628E+04 -0.3940964E-01  0.4129410E-03 -0.1629911E+05 -0.1146154E+04  0.1057129E+00  0.5151749E-02  0.1938907E+06  0.6314918E+04  0.5497036E+00  0.2088618E-01
  0.5200000E+00  0.5696164E+06  0.4667110E+04  0.9037899E-02  0.5363464E-02 -0.1100754E+03  0.2379993E+01 -0.1173753E+00 -0.1525879E-02  0.1532643E+07  0.2126581E+05  0.8620042E+00  0.2075195E-02  0.1755971E+06  0.7114295E+04  0.8348319E-02 -0.2737045E-03  0.1634798E+05  0.1393884E+04 -0.4524818E-01  0.2151489E-02  0.1923702E+06  0.8092889E+04  0.1240826E+01  0.1384401E-01  0.1751435E+06  0.7089844E+04  0.1698274E-01  0.1656055E-02 -0.1650286E+05 -0.1443913E+04 -0.6129925E-01 -0.2124786E-02  0.1923752E+06  0.8068871E+04  0.3526358E+00  0.1379967E-01
  0.5400000E+00  0.5711427E+06  0.5871092E+04  0.2543131E-01  0.1609802E-02 -0.1100922E+03  0.4072889E+01 -0.5515769E-01 -0.2691650E-01  0.1539783E+07  0.2635324E+05  0.2459491E+01  0.5334473E-01  0.1782153E+06  0.9002846E+04  0.1566852E-01 -0.1114845E-02  0.1660102E+05  0.1746301E+04 -0.8251049E-02  0.9216309E-02  0.1970190E+06  0.1036855E+05  0.4390540E+00  0.5277729E-01  0.1777507E+06  0.8971887E+04 -0.4320498E-01 -0.9984970E-03 -0.1675160E+05 -0.1799656E+04  0.1492536E+00  0.5970001E-02  0.1970085E+06  0.1033765E+05  0.9947105E+00  0.3622770E-01
  0.5600000E+00  0.5724072E+06  0.7317486E+04  0.3498622E-01 -0.2883911E-02 -0.1044831E+03  0.6763041E+01 -0.6103516E-01  0.6103516E-04  0.1541970E+07  0.3236668E+05  0.7324219E+00 -0.7336426E-01  0.1807390E+06  0.1122684E+05  0.2019746E-01 -0.8563995E-03  0.1678524E+05  0.2155964E+04 -0.6076268E-01  0.9918213E-04  0.2017739E+06  0.1308566E+05  0.3482206E+00  0.5267286E-01  0.1802632E+06  0.1118802E+05 -0.3253392E-01 -0.1090050E-02 -0.1692838E+05 -0.2212447E+04  0.1727785E+00  0.6523132E-02  0.2017458E+06  0.1304638E+05  0.4059519E+00 -0.3719616E-01
  0.5800000E+00  0.5729760E+06  0.8978019E+04 -0.1894195E-01  0.4943848E-02 -0.1048655E+03  0.9337942E+01  0.1094424E+00 -0.2172852E-01  0.1543125E+07  0.3919589E+05 -0.3367457E+00  0.4028320E-01  0.1828965E+06  0.1383796E+05  0.2730797E-01  0.1041412E-02  0.1693344E+05  0.2627082E+04 -0.1229648E+00 -0.6904602E-02  0.2059969E+06  0.1632211E+05  0.4727364E+00  0.1491165E-01  0.1824136E+06  0.1378987E+05 -0.2742636E-02  0.2698898E-03 -0.1706990E+05 -0.2686478E+04 -0.2367743E-02  0.1541138E-02  0.2059607E+06  0.1627281E+05  0.6583872E+00  0.1334763E-01
  0.6000000E+00  0.5735477E+06  0.1080772E+05 -0.2298991E-01  0.1983643E-03 -0.1050916E+03  0.1216149E+02  0.3255208E-01 -0.5249023E-02  0.1547417E+07  0.4678952E+05 -0.9537760E+00 -0.2270508E-01  0.1850728E+06  0.1685098E+05 -0.1415888E-01 -0.1604080E-02  0.1704404E+05  0.3164025E+04  0.6474812E-01 -0.1785278E-02  0.2114924E+06  0.2016573E+05  0.1998266E+00  0.5428410E-01  0.1845808E+06  0.1679184E+05  0.3379822E-01  0.1190186E-02 -0.1717422E+05 -0.3226198E+04 -0.1081594E+00 -0.5569458E-02  0.2114421E+06  0.2010437E+05  0.1055133E+01  0.8078384E-01
  0.6199999E+00  0.5757561E+06  0.1282242E+05 -0.2835182E-01 -0.4837036E-02 -0.1076751E+03  0.1465631E+02  0.3260459E+00  0.6005859E-01  0.1560989E+07  0.5481049E+05  0.1496346E+01  0.2246094E-01  0.1885612E+06  0.2031246E+05 -0.6281946E-02 -0.1270294E-02  0.1708023E+05  0.3755136E+04  0.2495551E-01  0.6149292E-02  0.2205358E+06  0.2485820E+05  0.2346285E+00 -0.8481026E-02  0.1880618E+06  0.2024020E+05  0.6897220E-02 -0.1522064E-02 -0.1720557E+05 -0.3820159E+04  0.4073113E-01  0.1209259E-01  0.2204780E+06  0.2478256E+05  0.8705479E+00  0.1365280E+00
  0.6400000E+00  0.5761623E+06  0.1522992E+05 -0.6237030E-01 -0.1187134E-01 -0.1028185E+03  0.1934900E+02  0.2746582E+00  0.2709961E-01  0.1559433E+07  0.6364742E+05 -0.8239746E-01 -0.4003906E-01  0.1889914E+06  0.2421413E+05 -0.1045465E-01 -0.3652573E-02  0.1691349E+05  0.4394828E+04  0.4115105E-01  0.1588440E-01  0.2203298E+06  0.2980773E+05  0.2387941E+00 -0.2003956E-01  0.1884833E+06  0.2412656E+05 -0.1484752E-01 -0.8659363E-03 -0.1703072E+05 -0.4461805E+04  0.6203651E-01  0.9002686E-02  0.2202508E+06  0.2971377E+05  0.6391674E+00  0.1276302E+00
  0.6600000E+00  0.5753935E+06  0.1790023E+05  0.6103515E-02  0.1296997E-01 -0.1034626E+03  0.2357872E+02  0.1671993E+00 -0.1513672E-01  0.1551437E+07  0.7333367E+05 -0.6303267E+00  0.1069336E+00  0.1889720E+06  0.2847545E+05  0.1398722E-01  0.2403259E-02  0.1665948E+05  0.5098449E+04 -0.1179088E-01 -0.2070618E-01  0.2208095E+06  0.3537506E+05  0.1764529E+00 -0.5960464E-02  0.1884582E+06  0.2837035E+05  0.7467559E-02  0.4114151E-02 -0.1676958E+05 -0.5167140E+04 -0.7060657E-01 -0.6622314E-02  0.2207179E+06  0.3525971E+05  0.5969481E+00  0.2814674E-01
  0.6799999E+00  0.5747276E+06  0.2056475E+05 -0.4649444E-01  0.2441406E-03 -0.1067907E+03  0.2745008E+02  0.1335593E+00 -0.2294922E-01  0.1548900E+07  0.8289802E+05  0.3044578E+00  0.2441406E-01  0.1889002E+06  0.3313288E+05  0.9357230E-02  0.3162384E-02  0.1634510E+05  0.5854397E+04 -0.2670288E-01 -0.5035400E-02  0.2224743E+06  0.4167376E+05  0.6843400E+00  0.3477478E-01  0.1883800E+06  0.3300746E+05 -0.9609673E-02 -0.5836487E-03 -0.1644836E+05 -0.5924457E+04  0.4205143E-01  0.1715088E-01  0.2223693E+06  0.4153359E+05  0.1201882E+00 -0.2656174E-01
  0.7000000E+00  0.5742155E+06  0.2343610E+05 -0.3540039E-01 -0.5126953E-02 -0.1089320E+03  0.3174863E+02  0.2664621E+00  0.6323242E-01  0.1547644E+07  0.9291850E+05  0.5106027E+00 -0.7910156E-01  0.1888898E+06  0.3792447E+05 -0.2517700E-01 -0.5416870E-03  0.1596748E+05  0.6643046E+04  0.1682391E+00  0.4547119E-02  0.2260788E+06  0.4860066E+05 -0.2641079E+00 -0.6205368E-01  0.1883680E+06  0.3777561E+05  0.1359667E-01 -0.1544952E-02 -0.1606443E+05 -0.6714282E+04 -0.2846854E-01  0.2041626E-01  0.2259649E+06  0.4843064E+05  0.9319578E-01 -0.1096706E+00
  0.7200000E+00  0.5737539E+06  0.2625522E+05  0.2814399E-01 -0.5920410E-02 -0.1133941E+03  0.3500390E+02 -0.4543728E+00  0.3198242E-01  0.1548445E+07  0.1022638E+06 -0.3634982E+00 -0.7226563E-01  0.1886473E+06  0.4301153E+05 -0.9494357E-02 -0.2136230E-02  0.1549890E+05  0.7424994E+04  0.3924900E-01  0.3265381E-02  0.2291217E+06  0.5613336E+05 -0.5219088E+00 -0.3148079E-01  0.1881265E+06  0.4283577E+05 -0.2545781E-01 -0.2811432E-02 -0.1559102E+05 -0.7497391E+04  0.7413228E-01  0.4312134E-01  0.2290046E+06  0.5592911E+05 -0.1713779E+00 -0.3069496E-01
  0.7399999E+00  0.5720588E+06  0.2916153E+05 -0.6812844E-01 -0.1025391E-01 -0.1114499E+03  0.4297546E+02  0.2480997E+00  0.9228516E-01  0.1540519E+07  0.1111829E+06  0.6387247E+00  0.2285156E+00  0.1862924E+06  0.4846727E+05  0.1636196E-01 -0.4005432E-02  0.1479825E+05  0.8200865E+04 -0.7934572E-01  0.1483154E-01  0.2273356E+06  0.6385070E+05 -0.7862350E+00 -0.1231613E+00  0.1857732E+06  0.4826159E+05 -0.2303253E-01 -0.1277924E-02 -0.1488207E+05 -0.8272808E+04  0.1426491E+00  0.2081299E-01  0.2272091E+06  0.6360579E+05  0.5591007E+00  0.4128647E-01
  0.7600000E+00  0.5693716E+06  0.3216288E+05  0.6569310E-01  0.2362061E-01 -0.1157182E+03  0.4871423E+02  0.3340872E-01 -0.8349609E-01  0.1528308E+07  0.1200150E+06  0.1362048E+00 -0.3222656E-01  0.1831099E+06  0.5383869E+05  0.2064956E-01  0.7110596E-02  0.1396495E+05  0.8980927E+04 -0.1372889E+00 -0.5261230E-01  0.2249195E+06  0.7181148E+05 -0.3524831E+00 -0.2795868E+00  0.1825989E+06  0.5359966E+05  0.4152499E-01  0.5130768E-02 -0.1404202E+05 -0.9052268E+04 -0.1706977E+00 -0.4272461E-01  0.2247968E+06  0.7152029E+05  0.8256561E-01 -0.1651974E+00
  0.7800000E+00  0.5667848E+06  0.3506804E+05 -0.6306966E-01 -0.3479004E-01 -0.1226770E+03  0.5351362E+02  0.2591647E+00  0.2050781E+00  0.1520253E+07  0.1282692E+06 -0.1900541E+01 -0.2187500E+00  0.1799412E+06  0.5882699E+05 -0.3607334E-01 -0.5058289E-02  0.1305408E+05  0.9724120E+04  0.1372509E+00  0.4177856E-01  0.2227201E+06  0.7957512E+05 -0.8404463E+00 -0.2565575E+00  0.1794425E+06  0.5854999E+05 -0.8817820E-02 -0.3280640E-02 -0.1312489E+05 -0.9794436E+04  0.6979918E-01  0.4815674E-01  0.2226062E+06  0.7923077E+05 -0.4969890E+00 -0.2054634E+00
  0.8000000E+00  0.5645726E+06  0.3731634E+05 -0.4577637E-03  0.1025391E-01 -0.1293371E+03  0.5845363E+02 -0.3662109E-01 -0.5615234E-01  0.1515238E+07  0.1330940E+06  0.3906250E+00  0.6250000E-01  0.1767969E+06  0.6355607E+05  0.5455017E-02 -0.1541138E-02  0.1210091E+05  0.1039541E+05  0.1880646E-01  0.1464844E-02  0.2210350E+06  0.8748991E+05 -0.4061079E+00 -0.5237579E-02  0.1763201E+06  0.6323779E+05  0.1745224E-01  0.4867554E-02 -0.1216586E+05 -0.1046396E+05 -0.6052017E-01  0.1708984E-02  0.2209421E+06  0.8708520E+05  0.1066713E+01 -0.1063957E+00
  0.8200000E+00  0.5618436E+06  0.3962488E+05 -0.1444003E-01 -0.9460449E-02 -0.1378391E+03  0.6143050E+02  0.4168255E-01 -0.2978516E-01  0.1509511E+07  0.1373475E+06 -0.7764863E+00  0.2539063E-01  0.1727184E+06  0.6846112E+05 -0.7964344E-02 -0.1007080E-01  0.1108067E+05  0.1097322E+05  0.5716464E-01  0.4443359E-01  0.2174191E+06  0.9563375E+05 -0.6750246E+00 -0.1001587E+00  0.1722700E+06  0.6810155E+05 -0.4372946E-03 -0.9643555E-02 -0.1114102E+05 -0.1103965E+05  0.7458198E-01  0.3005981E-01  0.2173574E+06  0.9516593E+05 -0.6854081E+00 -0.4485321E+00
  0.8400000E+00  0.5586184E+06  0.4196740E+05  0.2034505E-02  0.1434326E-01 -0.1446165E+03  0.6658012E+02  0.3441220E+00  0.6298828E-01  0.1501070E+07  0.1422038E+06  0.1864769E+01 -0.2041016E+00  0.1680268E+06  0.7288247E+05 -0.7742927E-02  0.9689331E-03  0.1002108E+05  0.1150133E+05  0.3818331E-01  0.2746582E-02  0.2124898E+06  0.1031058E+06 -0.5098547E+00 -0.1414070E+00  0.1676165E+06  0.7247934E+05  0.5844662E-02  0.3456116E-02 -0.1007657E+05 -0.1156452E+05 -0.2052671E-01 -0.4852295E-02  0.2124726E+06  0.1025698E+06 -0.1144704E+00 -0.1347923E+00
  0.8600000E+00  0.5558213E+06  0.4333667E+05  0.1277480E-01  0.1763916E-01 -0.1517672E+03  0.7622916E+02  0.4122002E+00  0.2929688E-01  0.1492753E+07  0.1426371E+06  0.1017442E+01 -0.1972656E+00  0.1634007E+06  0.7614833E+05  0.2393057E-01  0.1377869E-01  0.8896443E+04  0.1195796E+05 -0.1027307E+00 -0.8081055E-01  0.2083110E+06  0.1094784E+06 -0.2386137E+00 -0.5565643E-02  0.1630420E+06  0.7569909E+05  0.1419866E-01  0.3250122E-02 -0.8946149E+04 -0.1201623E+05 -0.6121258E-02 -0.1660156E-01  0.2083590E+06  0.1088687E+06  0.4278072E+00  0.1067543E+00
  0.8800001E+00  0.5527202E+06  0.4418301E+05 -0.1539750E-01 -0.4595947E-01 -0.1643711E+03  0.7753685E+02 -0.2319336E+00  0.6640625E-01  0.1485213E+07  0.1400095E+06 -0.6525212E+00  0.1386719E+00  0.1589818E+06  0.7873596E+05 -0.4746696E-02 -0.1158142E-01  0.7764513E+04  0.1227346E+05  0.7421319E-01  0.5780029E-01  0.2046985E+06  0.1153067E+06 -0.5757786E+00 -0.2534065E+00  0.1586926E+06  0.7825147E+05 -0.6897232E-01 -0.2202606E-01 -0.7810280E+04 -0.1232607E+05  0.2686240E+00  0.1245728E+00  0.2048427E+06  0.1146351E+06  0.9418616E-01 -0.6323242E-01
  0.9000000E+00  0.5495664E+06  0.4498715E+05 -0.4069011E-02  0.4278564E-01 -0.1773920E+03  0.7596042E+02  0.2398003E+00 -0.8789063E-02  0.1480491E+07  0.1372920E+06  0.5902778E+00  0.9960938E-01  0.1542016E+06  0.8116349E+05  0.1740774E-01  0.1940918E-01  0.6615724E+04  0.1243429E+05 -0.1087782E+00 -0.7037354E-01  0.1991699E+06  0.1204455E+06  0.1765357E-02 -0.2410889E-02  0.1539851E+06  0.8065712E+05  0.3823810E-01  0.2213287E-01 -0.6659569E+04 -0.1248052E+05 -0.1603699E+00 -0.8367920E-01  0.1994179E+06  0.1197314E+06 -0.1516448E-01  0.3911285E+00
  0.9200000E+00  0.5469191E+06  0.4564393E+05 -0.4617442E-01  0.3991699E-01 -0.1885540E+03  0.7250815E+02  0.5264946E+00 -0.1562500E-01  0.1479005E+07  0.1341974E+06  0.2556046E+01  0.2832031E+00  0.1500559E+06  0.8271667E+05  0.5925842E-01  0.2299500E-01  0.5504591E+04  0.1252982E+05 -0.2432782E+00 -0.1019287E+00  0.1945918E+06  0.1245238E+06  0.4777701E-02 -0.1796036E+00  0.1499172E+06  0.8220397E+05  0.3255865E-01  0.2656555E-01 -0.5547985E+04 -0.1256944E+05 -0.1407623E+00 -0.8795166E-01  0.1949531E+06  0.1237858E+06  0.5422131E+00  0.1611977E+00
  0.9399999E+00  0.5448239E+06  0.4542308E+05 -0.4688020E-01  0.3283691E-01 -0.1982014E+03  0.6568007E+02  0.2929688E+00 -0.7812500E-01  0.1481363E+07  0.1275835E+06 -0.3442903E+01  0.2753906E+00  0.1469371E+06  0.8296556E+05  0.1088203E-01  0.1049805E-01  0.4489514E+04  0.1255879E+05 -0.8106638E-01 -0.5975342E-01  0.1920429E+06  0.1270882E+06 -0.1402612E-01 -0.1746674E+00  0.1468780E+06  0.8246358E+05  0.3939474E-01  0.2076721E-01 -0.4534146E+04 -0.1259212E+05 -0.1167191E+00 -0.7586670E-01  0.1925264E+06  0.1263536E+06  0.6771931E+00  0.1331062E+00
  0.9600000E+00  0.5431456E+06  0.4434609E+05 -0.1525879E-02 -0.1928711E-01 -0.2043084E+03  0.5569234E+02  0.1322428E-01  0.8300781E-01  0.1487370E+07  0.1186297E+06 -0.9460449E+00 -0.9179688E-01  0.1439689E+06  0.8280125E+05 -0.1264413E-01 -0.3890991E-02  0.3554987E+04  0.1247798E+05  0.9238323E-01  0.3717041E-01  0.1893251E+06  0.1288725E+06  0.2349228E+00  0.5226898E-01  0.1439785E+06  0.8233023E+05  0.8491675E-02 -0.5371094E-02 -0.3602397E+04 -0.1250614E+05 -0.5025467E-01  0.1696777E-01  0.1899160E+06  0.1281721E+06 -0.3532966E-01 -0.5764008E-02
  0.9800000E+00  0.5412218E+06  0.4337753E+05  0.2746582E-01  0.4833984E-01 -0.2096841E+03  0.5407059E+02 -0.2361687E+00 -0.9863281E-01  0.1490771E+07  0.1099030E+06  0.2244101E+01  0.1679688E+00  0.1412080E+06  0.8183641E+05  0.3228285E-01  0.1362610E-01  0.2590867E+04  0.1226581E+05 -0.1395663E+00 -0.8575439E-01  0.1865719E+06  0.1291469E+06  0.4024866E+00  0.2823029E+00  0.1412713E+06  0.8141247E+05  0.2973907E-02  0.1168823E-01 -0.2641079E+04 -0.1228672E+05 -0.3114817E-01 -0.4565430E-01  0.1872495E+06  0.1285071E+06  0.2838154E+00  0.1289368E+00
  0.9999999E+00  0.5386705E+06  0.4170615E+05 -0.3802491E-01  0.5859375E-02 -0.2140303E+03  0.5082332E+02  0.4443360E-01 -0.1542969E+00  0.1487032E+07  0.9673232E+05 -0.2710938E+01 -0.2187500E+00  0.1386088E+06  0.7893861E+05 -0.1012993E-01 -0.4135132E-02  0.1665137E+04  0.1195027E+05  0.4357911E-01  0.1800537E-01  0.1821687E+06  0.1255946E+06  0.4017001E+00  0.2189789E+00  0.1387043E+06  0.7857374E+05  0.1691437E-01  0.1541138E-02 -0.1719297E+04 -0.1196591E+05 -0.5619813E-01 -0.1782227E-01  0.1829000E+06  0.1250425E+06 -0.7238160E+00 -0.3571548E+00
  0.1020000E+01  0.5379521E+06  0.3943372E+05  0.2273859E-02 -0.1977539E-01 -0.2135667E+03  0.3805275E+02 -0.5126953E+00 -0.5273438E-01  0.1499740E+07  0.8216053E+05 -0.1105813E+01  0.1367188E-01  0.1384152E+06  0.7608204E+05 -0.9508695E-02 -0.1129150E-01  0.8037748E+03  0.1155641E+05  0.9059532E-01  0.7879639E-01  0.1833358E+06  0.1230780E+06 -0.4512254E+00 -0.8110809E-01  0.1385256E+06  0.7577849E+05 -0.1786550E-01 -0.2180481E-01 -0.8620699E+03 -0.1156851E+05  0.3313551E-01  0.9313965E-01  0.1841006E+06  0.1226096E+06 -0.1644602E+00  0.2922821E-01
  0.1040000E+01  0.5374602E+06  0.3723106E+05  0.2007118E-01  0.1342773E-02 -0.2122073E+03  0.2887987E+02 -0.4882813E-01 -0.7617188E-01  0.1516688E+07  0.7045580E+05  0.1539964E+00 -0.8984375E-01  0.1394205E+06  0.7283571E+05  0.3141623E-01  0.1194763E-01  0.1189082E+02  0.1106917E+05 -0.7784917E-01 -0.5377197E-01  0.1861930E+06  0.1195791E+06  0.3596948E+00  0.1174545E+00  0.1395318E+06  0.7258565E+05 -0.2512198E-01 -0.7324219E-02 -0.7433813E+02 -0.1107862E+05  0.8621216E-01  0.3320313E-01  0.1869685E+06  0.1191876E+06 -0.4174526E+00 -0.4432907E+00
  0.1060000E+01  0.5379535E+06  0.3471918E+05 -0.2579599E-01  0.9765625E-02 -0.2092473E+03  0.2191287E+02  0.6633255E-01  0.1259766E+00  0.1539333E+07  0.5860587E+05  0.4228700E+00 -0.3886719E+00  0.1423370E+06  0.6875584E+05  0.7294709E-02  0.8712769E-02 -0.7348176E+03  0.1055358E+05 -0.5746518E-01 -0.6738281E-01  0.1927461E+06  0.1147991E+06 -0.6748829E+00 -0.2588272E+00  0.1424390E+06  0.6855462E+05  0.1059478E-01  0.2000427E-01  0.6685243E+03 -0.1056120E+05 -0.7663943E-01 -0.9832764E-01  0.1935165E+06  0.1144754E+06 -0.2905684E+00 -0.1894531E+00